<LesHouchesEvents version="3.0">
<header>
<!--
#*********************************************************************
#                                                                    *
#                        MadGraph5_aMC@NLO                           *
#                                                                    *
#                           Going Beyond                             *
#                                                                    *
#                   http://madgraph.hep.uiuc.edu                     *
#                   http://madgraph.phys.ucl.ac.be                   *
#                   http://amcatnlo.cern.ch                          *
#                                                                    *
#                     The MadGraph5_aMC@NLO team                     *
#                                                                    *
#....................................................................*
#                                                                    *
# This file contains all the information necessary to reproduce      *
# the events generated:                                              *
#                                                                    *
# 1. software version                                                *
# 2. proc_card          : code generation info including model       *
# 3. param_card         : model primary parameters in the LH format  *
# 4. run_card           : running parameters (collider and cuts)     *
# 5. pythia_card        : present only if pythia has been run        *
# 6. pgs_card           : present only if pgs has been run           *
# 7. delphes_cards      : present only if delphes has been run       *
#                                                                    *
#                                                                    *
#*********************************************************************
-->
<MGVersion>
#2.9.18
</MGVersion>
<MG5ProcCard>
<![CDATA[
#************************************************************
#*                     MadGraph5_aMC@NLO                    *
#*                                                          *
#*                *                       *                 *
#*                  *        * *        *                   *
#*                    * * * * 5 * * * *                     *
#*                  *        * *        *                   *
#*                *                       *                 *
#*                                                          *
#*                                                          *
#*         VERSION 2.9.18                2023-12-08         *
#*                                                          *
#*    The MadGraph5_aMC@NLO Development Team - Find us at   *
#*    https://server06.fynu.ucl.ac.be/projects/madgraph     *
#*                                                          *
#************************************************************
#*                                                          *
#*               Command File for MadGraph5_aMC@NLO         *
#*                                                          *
#*     run as ./bin/mg5_aMC  filename                       *
#*                                                          *
#************************************************************
set low_mem_multicore_nlo_generation False
set default_unset_couplings 99
set max_t_for_channel 99
set zerowidth_tchannel True
set group_subprocesses Auto
set ignore_six_quark_processes False
set loop_optimized_output True
set loop_color_flows False
set gauge unitary
set complex_mass_scheme False
set max_npoint_for_channel 0
import model sm
define p = g u c d s u~ c~ d~ s~
define j = g u c d s u~ c~ d~ s~
define l+ = e+ mu+
define l- = e- mu-
define vl = ve vm vt
define vl~ = ve~ vm~ vt~
set group_subprocesses Auto
set ignore_six_quark_processes False
set loop_optimized_output True
set gauge unitary
set complex_mass_scheme False
import model NMSSMHET_UFO --modelname
generate g g > h03 , (h03 > h02 h01, h02 > b b~, h01 > b b~)
output NMSSM_XYH_bbbb_MX_1400_MY_90 -nojpeg
]]>
</MG5ProcCard>
<MGProcCard>
#*********************************************************************
#                        MadGraph/MadEvent                           *
#                   http://madgraph.hep.uiuc.edu                     *
#                                                                    *
#                          proc_card.dat                             *
#*********************************************************************
#                                                                    *
#            This Files is generated by MADGRAPH 5                   *
#                                                                    *
# WARNING: This Files is generated for MADEVENT (compatibility issue)*
#          This files is NOT a valid MG4 proc_card.dat               *
#          Running this in MG4 will NEVER reproduce the result of MG5*
#                                                                    *
#*********************************************************************
#*********************************************************************
# Process(es) requested : mg2 input                                  *
#*********************************************************************
# Begin PROCESS # This is TAG. Do not modify this line
g g > h03 , (h03 > h02 h01 , h02 > b b~ , h01 > b b~)           #Process
# Be carefull the coupling are here in MG5 convention
          
end_coup           # End the couplings input

done               # this tells MG there are no more procs
# End PROCESS  # This is TAG. Do not modify this line
#*********************************************************************
# Model information                                                  *
#*********************************************************************
# Begin MODEL  # This is TAG. Do not modify this line
NMSSMHET_UFO
# End   MODEL  # This is TAG. Do not modify this line
#*********************************************************************
# Start multiparticle definitions                                    *
#*********************************************************************
# Begin MULTIPARTICLES # This is TAG. Do not modify this line

# End  MULTIPARTICLES # This is TAG. Do not modify this line
</MGProcCard>
<MGRunCard>
<![CDATA[
#*********************************************************************
#                       MadGraph5_aMC@NLO                            *
#                                                                    *
#                     run_card.dat MadEvent                          *
#                                                                    *
#  This file is used to set the parameters of the run.               *
#                                                                    *
#  Some notation/conventions:                                        *
#                                                                    *
#   Lines starting with a '# ' are info or comments                  *
#                                                                    *
#   mind the format:   value    = variable     ! comment             *
#                                                                    *
#   To display more options, you can type the command:               *
#      update to_full                                                *
#*********************************************************************
#                                                                    
#*********************************************************************
# Tag name for the run (one word)                                    *
#*********************************************************************
  tag_1	= run_tag ! name of the run 
#*********************************************************************
# Number of events and rnd seed                                      *
# Warning: Do not generate more than 1M events in a single run       *
#*********************************************************************
  10000	= nevents ! Number of unweighted events requested 
 10 = iseed ! rnd seed (0=assigned automatically=default))
#*********************************************************************
# Collider type and energy                                           *
# lpp: 0=No PDF, 1=proton, -1=antiproton, 2=photon from proton,      *
#                3=photon from electron, 4=photon from muon          *
#*********************************************************************
  1	= lpp1 ! beam 1 type 
  1	= lpp2 ! beam 2 type
  6500.0	= ebeam1 ! beam 1 total energy in GeV
  6500.0	= ebeam2 ! beam 2 total energy in GeV

#*********************************************************************
# Beam polarization from -100 (left-handed) to 100 (right-handed)    *
#*********************************************************************
     0.0     = polbeam1 ! beam polarization for beam 1
     0.0     = polbeam2 ! beam polarization for beam 2


#*********************************************************************
# PDF CHOICE: this automatically fixes also alpha_s and its evol.    *
#*********************************************************************
  lhapdf	= pdlabel ! PDF set                                     
  325500	= lhaid ! if pdlabel=lhapdf, this is the lhapdf number
# To see heavy ion options: type "update ion_pdf"
#*********************************************************************
# Renormalization and factorization scales                           *
#*********************************************************************
  False	= fixed_ren_scale ! if .true. use fixed ren scale
  False	= fixed_fac_scale ! if .true. use fixed fac scale
  91.188	= scale ! fixed ren scale
  91.188	= dsqrt_q2fact1 ! fixed fact scale for pdf1
  91.188	= dsqrt_q2fact2 ! fixed fact scale for pdf2
  -1	= dynamical_scale_choice ! Choose one of the preselected dynamical choices
  1.0	= scalefact ! scale factor for event-by-event scales
#*********************************************************************
# Type and output format
#*********************************************************************
  True	= gridpack !True = setting up the grid pack
  -1.0	= time_of_flight ! threshold (in mm) below which the invariant livetime is not written (-1 means not written)
  average	= event_norm ! average/sum. Normalization of the weight in the LHEF

#*********************************************************************
# Matching parameter (MLM only)
#*********************************************************************
 0 = ickkw            ! 0 no matching, 1 MLM
 1.0 = alpsfact         ! scale factor for QCD emission vx
 False = chcluster        ! cluster only according to channel diag
 4 = asrwgtflavor     ! highest quark flavor for a_s reweight
 False  = auto_ptj_mjj  ! Automatic setting of ptj and mjj if xqcut >0
                                   ! (turn off for VBF and single top processes)
 0.0   = xqcut   ! minimum kt jet measure between partons


#*********************************************************************
#
#*********************************************************************
# Phase-Space Optimization strategy (basic options)
#*********************************************************************
  0	= nhel ! using helicities importance sampling or not.
                             ! 0: sum over helicity, 1: importance sampling
  2	= sde_strategy ! default integration strategy (hep-ph/2021.00773)
                             ! 1 is old strategy (using amp square)
			     ! 2 is new strategy (using only the denominator)
# To see advanced option for Phase-Space optimization: type "update psoptim"			     
#*********************************************************************
# Generation bias, check the wiki page below for more information:   *
#  'cp3.irmp.ucl.ac.be/projects/madgraph/wiki/LOEventGenerationBias' *
#*********************************************************************
  None	= bias_module ! Bias type of bias, [None, ptj_bias, -custom_folder-]
  {}	= bias_parameters ! Specifies the parameters of the module.
#
#*******************************                                                 
# Parton level cuts definition *
#*******************************                                     
#                                                                    
#
#*********************************************************************
# BW cutoff (M+/-bwcutoff*Gamma) ! Define on/off-shell for "$" and decay  
#*********************************************************************
  15.0	= bwcutoff ! (M+/-bwcutoff*Gamma)
 #*********************************************************************
 # Apply pt/E/eta/dr/mij/kt_durham cuts on decay products or not
 # (note that etmiss/ptll/ptheavy/ht/sorted cuts always apply)
 #*********************************************************************
  False	= cut_decays ! Cut decay products 
#*********************************************************************
# Standard Cuts                                                      *
#*********************************************************************
# Minimum and maximum pt's (for max, -1 means no cut)                *
#*********************************************************************
  0.0	= ptb ! minimum pt for the b 
  -1.0	= ptbmax ! maximum pt for the b
  {}	= pt_min_pdg ! pt cut for other particles (use pdg code). Applied on particle and anti-particle
  {}	= pt_max_pdg ! pt cut for other particles (syntax e.g. {6: 100, 25: 50}) 

#*********************************************************************
# Minimum and maximum E's (in the center of mass frame)              *
#*********************************************************************
  0.0  = ej     ! minimum E for the jets
  0.0  = eb     ! minimum E for the b
  0.0  = ea     ! minimum E for the photons
  0.0  = el     ! minimum E for the charged leptons
  -1.0   = ejmax ! maximum E for the jets
 -1.0   = ebmax ! maximum E for the b
 -1.0   = eamax ! maximum E for the photons
 -1.0   = elmax ! maximum E for the charged leptons
 {} = e_min_pdg ! E cut for other particles (use pdg code). Applied on particle and anti-particle
 {} = e_max_pdg ! E cut for other particles (syntax e.g. {6: 100, 25: 50})

#*********************************************************************
# Maximum and minimum absolute rapidity (for max, -1 means no cut)   *
#*********************************************************************
  -1.0	= etab ! max rap for the b
  0.0	= etabmin ! min rap for the b
  {}	= eta_min_pdg ! rap cut for other particles (use pdg code). Applied on particle and anti-particle
  {}	= eta_max_pdg ! rap cut for other particles (syntax e.g. {6: 2.5, 23: 5})
#*********************************************************************
# Minimum and maximum DeltaR distance                                *
#*********************************************************************
  0.0	= drbb ! min distance between b's 
  -1.0	= drbbmax ! max distance between b's
#*********************************************************************
# Minimum and maximum invariant mass for pairs                       *
#*********************************************************************
  0.0	= mmbb ! min invariant mass of a b pair 
  -1.0	= mmbbmax ! max invariant mass of a b pair
  {}	= mxx_min_pdg ! min invariant mass of a pair of particles X/X~ (e.g. {6:250})
  {'default': False}	= mxx_only_part_antipart ! if True the invariant mass is applied only 
                       ! to pairs of particle/antiparticle and not to pairs of the same pdg codes.  
#*********************************************************************
# Inclusive cuts                                                     *
#*********************************************************************
  0.0	= xptb ! minimum pt for at least one b 
 #*********************************************************************
 # Control the Ht(k)=Sum of k leading jets                            *
 #*********************************************************************
  0.0	= ihtmin !inclusive Ht for all partons (including b)
  -1.0	= ihtmax !inclusive Ht for all partons (including b)
  0.0	= ht2min ! minimum Ht for the two leading jets
  0.0	= ht3min ! minimum Ht for the three leading jets
  0.0	= ht4min ! minimum Ht for the four leading jets
  -1.0	= ht2max ! maximum Ht for the two leading jets
  -1.0	= ht3max ! maximum Ht for the three leading jets
  -1.0	= ht4max ! maximum Ht for the four leading jets
#*********************************************************************
# maximal pdg code for quark to be considered as a light jet         *
# (otherwise b cuts are applied)                                     *
#*********************************************************************
  4	= maxjetflavor ! Maximum jet pdg code
#*********************************************************************
#
#*********************************************************************
# Store info for systematics studies                                 *
# WARNING: Do not use for interference type of computation           *
#*********************************************************************
  True	= use_syst ! Enable systematics studies
#
  None	= systematics_program ! none, systematics [python], SysCalc [depreceted, C++]
  ['--mur=0.5,1,2', '--muf=0.5,1,2', '--pdf=errorset']	= systematics_arguments ! see: https://cp3.irmp.ucl.ac.be/projects/madgraph/wiki/Systematics#Systematicspythonmodule
# Syscalc is deprecated but to see the associate options type'update syscalc'
#***********************************************************************
# Turn on either the ktdurham or ptlund cut to activate                *
# CKKW(L) merging with Pythia8 [arXiv:1410.3012, arXiv:1109.4829]      *
#***********************************************************************
 -1.0  =  ktdurham
 0.4   =  dparameter
 -1.0  =  ptlund
 1, 2, 3, 4, 5, 6, 21, 1000001, 1000002, 1000003, 1000004, 1000005, 1000006, 1000021, 2000001, 2000002, 2000003, 2000004, 2000005, 2000006  =  pdgs_for_merging_cut ! PDGs for two cuts above
#********************************************************************* 
#  Additional hidden parameters
#*********************************************************************
  -1.0	= ptj2max # hidden_parameter
  0.0	= misset # hidden_parameter
  0.0	= ptgmin # hidden_parameter
  20.0	= ptj # hidden_parameter
  0.0	= ptl3min # hidden_parameter
  5.0	= etaj # hidden_parameter
  -1.0	= mmnlmax # hidden_parameter
  -1.0	= drblmax # hidden_parameter
  0.0	= etalmin # hidden_parameter
  0.0	= drab # hidden_parameter
  -1.0	= ptj1max # hidden_parameter
  10.0	= pta # hidden_parameter
  -1.0	= ptamax # hidden_parameter
  -1.0	= drajmax # hidden_parameter
  -1.0	= ptl1max # hidden_parameter
  0.0	= mmnl # hidden_parameter
  -1.0	= ptj3max # hidden_parameter
  2.5	= etaa # hidden_parameter
  2.5	= etal # hidden_parameter
  0.0	= deltaeta # hidden_parameter
  -1.0	= drabmax # hidden_parameter
  -1.0	= ptlmax # hidden_parameter
  0.0	= xptj # hidden_parameter
  0.0	= drbj # hidden_parameter
  1.0	= epsgamma # hidden_parameter
  -1.0	= htjmax # hidden_parameter
  10.0	= ptl # hidden_parameter
  -1.0	= drjjmax # hidden_parameter
  -1.0	= drbjmax # hidden_parameter
  -1.0	= draamax # hidden_parameter
  True	= isoem # hidden_parameter
  0.0	= ptl1min # hidden_parameter
  0.4	= draj # hidden_parameter
  0.0	= xptl # hidden_parameter
  -1.0	= ptl3max # hidden_parameter
  True	= clusinfo # hidden_parameter
  0.0	= mmjj # hidden_parameter
  0.0	= etajmin # hidden_parameter
  0.0	= ptheavy # this cut apply on particle heavier than 10 GeV
  0.4	= drll # hidden_parameter
  -1.0	= dralmax # hidden_parameter
  -1.0	= mmaamax # hidden_parameter
  0.0	= mmll # hidden_parameter
  0.0	= xpta # hidden_parameter
  0.0	= htjmin # hidden_parameter
  0.0	= mmaa # hidden_parameter
  0.0	= ptj3min # hidden_parameter
  0.0	= xetamin # hidden_parameter
  0.4	= draa # hidden_parameter
  0.0	= ptl2min # hidden_parameter
  3.0	= lhe_version # hidden_parameter
  0.0	= ptl4min # hidden_parameter
  0.4	= dral # hidden_parameter
  -1.0	= missetmax # hidden_parameter
  0.4	= drjl # hidden_parameter
  -1.0	= mmllmax # hidden_parameter
  0.0	= etaamin # hidden_parameter
  0.4	= r0gamma # hidden_parameter
  1.0	= xn # hidden_parameter
  -1.0	= ptl4max # hidden_parameter
  0.0	= ptj4min # hidden_parameter
  0.0	= drbl # hidden_parameter
  0.0	= ptllmin # hidden_parameter
  -1.0	= mmjjmax # hidden_parameter
  -1.0	= drllmax # hidden_parameter
  -1.0	= drjlmax # hidden_parameter
  -1.0	= ptj4max # hidden_parameter
  0	= cutuse # hidden_parameter
  -1.0	= ptllmax # hidden_parameter
  0.0	= ptj1min # hidden_parameter
  0.0	= ptj2min # hidden_parameter
  0.4	= drjj # hidden_parameter
  -1.0	= ptl2max # hidden_parameter
  -1.0	= ptjmax # hidden_parameter
]]>
</MGRunCard>
<slha>
######################################################################
## PARAM_CARD AUTOMATICALY GENERATED BY MG5                       ####
######################################################################
###################################
## INFORMATION FOR DSQMIX
###################################
BLOCK DSQMIX # 
      1 3 9.908905e-01 # rrd1x3
      1 6 1.346704e-01 # rrd1x6
      2 3 -1.346704e-01 # rrd2x3
      2 6 9.908905e-01 # rrd2x6
      3 5 1.000000e+00 # rrd3x5
      4 4 1.000000e+00 # rrd4x4
      5 1 1.000000e+00 # rrd5x1
      6 2 1.000000e+00 # rrd6x2
###################################
## INFORMATION FOR HET
###################################
BLOCK HET # 
      1 1.000000e+00 # gagg
      2 1.000000e+00 # gayy
      3 1.000000e+00 # ghgg
      4 1.000000e+00 # ghyy
###################################
## INFORMATION FOR HMIX
###################################
BLOCK HMIX # 
      2 1.000043e+01 # tb
      4 1.048278e+06 # ma2
###################################
## INFORMATION FOR MASS
###################################
BLOCK MASS # 
      3 2.000000e-01 # ms
      4 1.230000e+00 # mc
      5 4.214000e+00 # mb
      6 1.714000e+02 # mt
      11 5.110000e-04 # me
      13 1.056000e-01 # mm
      15 1.777000e+00 # mta
      23 9.118700e+01 # mz
      24 8.093875e+01 # mw
      25 1.250000e+02 # mh01
      35 9.000000e+01 # mh02
      36 4.039770e+01 # ma01
      37 1.022472e+03 # mh
      45 1.400000e+03 # mh03
      46 1.021042e+03 # ma02
      1000001 8.663652e+02 # msd1
      1000002 4.992293e+02 # msu1
      1000003 9.921381e+02 # msd2
      1000004 9.355274e+02 # msu2
      1000005 1.023754e+03 # msd3
      1000006 1.027259e+03 # msu3
      1000011 2.147396e+02 # msl1
      1000012 3.603406e+02 # msn1
      1000013 2.610244e+02 # msl2
      1000014 3.721212e+02 # msn2
      1000015 2.610244e+02 # msl3
      1000016 3.721212e+02 # msn3
      1000021 1.151543e+03 # mgo
      1000022 2.081416e+02 # mneu1
      1000023 3.978511e+02 # mneu2
      1000024 3.978295e+02 # mch1
      1000025 -9.639805e+02 # mneu3
      1000035 9.695939e+02 # mneu4
      1000037 9.701368e+02 # mch2
      1000045 2.094274e+03 # mneu5
      2000001 1.023754e+03 # msd4
      2000002 1.027259e+03 # msu4
      2000003 1.066519e+03 # msd5
      2000004 1.063635e+03 # msu5
      2000005 1.066519e+03 # msd6
      2000006 1.063635e+03 # msu6
      2000011 3.748574e+02 # msl4
      2000013 3.801759e+02 # msl5
      2000015 3.801759e+02 # msl6
      1 0.000000e+00 # d : 0.0
      2 0.000000e+00 # u : 0.0
      12 0.000000e+00 # ve : 0.0
      14 0.000000e+00 # vm : 0.0
      16 0.000000e+00 # vt : 0.0
      21 0.000000e+00 # g : 0.0
      22 0.000000e+00 # a : 0.0
###################################
## INFORMATION FOR MSD2
###################################
BLOCK MSD2 # 
      1 1 9.635454e+05 # rmd21x1
      2 2 9.635454e+05 # rmd22x2
      3 3 9.334518e+05 # rmd23x3
###################################
## INFORMATION FOR MSE2
###################################
BLOCK MSE2 # 
      1 1 6.631115e+04 # rme21x1
      2 2 6.631115e+04 # rme22x2
      3 3 4.889737e+04 # rme23x3
###################################
## INFORMATION FOR MSL2
###################################
BLOCK MSL2 # 
      1 1 1.424152e+05 # rml21x1
      2 2 1.424152e+05 # rml22x2
      3 3 1.337864e+05 # rml23x3
###################################
## INFORMATION FOR MSOFT
###################################
BLOCK MSOFT # 
      1 2.116187e+02 # rmx1
      2 3.918648e+02 # rmx2
      3 1.112256e+03 # rmx3
      21 8.998853e+04 # mhd2
      22 -9.080711e+05 # mhu2
###################################
## INFORMATION FOR MSQ2
###################################
BLOCK MSQ2 # 
      1 1 1.048784e+06 # rmq21x1
      2 2 1.048784e+06 # rmq22x2
      3 3 7.155793e+05 # rmq23x3
###################################
## INFORMATION FOR MSU2
###################################
BLOCK MSU2 # 
      1 1 9.724283e+05 # rmu21x1
      2 2 9.724283e+05 # rmu22x2
      3 3 3.194849e+05 # rmu23x3
###################################
## INFORMATION FOR NMAMIX
###################################
BLOCK NMAMIX # 
      1 1 5.012589e-02 # up1x1
      1 2 5.012589e-03 # up1x2
      1 3 9.987303e-01 # up1x3
      2 1 9.937738e-01 # up2x1
      2 2 9.937738e-02 # up2x2
      2 3 -5.037590e-02 # up2x3
###################################
## INFORMATION FOR NMHMIX
###################################
BLOCK NMHMIX # 
      1 1 1.012306e-01 # us1x1
      1 2 9.948418e-01 # us1x2
      1 3 -6.490797e-03 # us1x3
      2 1 9.948504e-01 # us2x1
      2 2 -1.011943e-01 # us2x2
      2 3 5.695888e-03 # us2x3
      3 1 -5.009676e-03 # us3x1
      3 2 7.033970e-03 # us3x2
      3 3 9.999627e-01 # us3x3
###################################
## INFORMATION FOR NMNMIX
###################################
BLOCK NMNMIX # 
      1 1 9.986845e-01 # rnn1x1
      1 2 -8.149439e-03 # rnn1x2
      1 3 4.835308e-02 # rnn1x3
      1 4 -1.498717e-02 # rnn1x4
      1 5 4.303890e-04 # rnn1x5
      2 1 1.386218e-02 # rnn2x1
      2 2 9.932687e-01 # rnn2x2
      2 3 -1.031190e-01 # rnn2x3
      2 4 5.089756e-02 # rnn2x4
      2 5 -1.001173e-03 # rnn2x5
      3 1 -2.322789e-02 # rnn3x1
      3 2 3.729521e-02 # rnn3x2
      3 3 7.052977e-01 # rnn3x3
      3 4 7.075347e-01 # rnn3x4
      3 5 4.396280e-03 # rnn3x5
      4 1 4.356062e-02 # rnn4x1
      4 2 -1.093611e-01 # rnn4x2
      4 3 -6.996310e-01 # rnn4x3
      4 4 7.046738e-01 # rnn4x4
      4 5 -9.692680e-03 # rnn4x5
      5 1 1.083973e-04 # rnn5x1
      5 2 -2.260343e-04 # rnn5x2
      5 3 -1.000661e-02 # rnn5x3
      5 4 3.777281e-03 # rnn5x4
      5 5 9.999428e-01 # rnn5x5
###################################
## INFORMATION FOR NMSSMRUN
###################################
BLOCK NMSSMRUN # 
      1 1.000000e-01 # nml
      2 1.089107e-01 # nmk
      3 -9.639075e+02 # nmal
      4 -1.589271e+00 # nmak
      5 9.708679e+02 # mueff
      10 -2.235031e+06 # ms2
      12 1.000000e+00 # bb
###################################
## INFORMATION FOR SELMIX
###################################
BLOCK SELMIX # 
      1 3 2.209803e-01 # rrl1x3
      1 6 9.752783e-01 # rrl1x6
      2 4 1.000000e+00 # rrl2x4
      3 5 1.000000e+00 # rrl3x5
      4 3 -9.752783e-01 # rrl4x3
      4 6 2.209803e-01 # rrl4x6
      5 1 1.000000e+00 # rrl5x1
      6 2 1.000000e+00 # rrl6x2
###################################
## INFORMATION FOR SMINPUTS
###################################
BLOCK SMINPUTS # 
      1 1.279200e+02 # aewm1
      3 1.172000e-01 # as (note that parameter not used if you use a pdf set)
###################################
## INFORMATION FOR SNUMIX
###################################
BLOCK SNUMIX # 
      1 3 1.000000e+00 # rrn1x3
      2 2 1.000000e+00 # rrn2x2
      3 1 1.000000e+00 # rrn3x1
###################################
## INFORMATION FOR TD
###################################
BLOCK TD # 
      3 3 -3.423100e+02 # rtd3x3
###################################
## INFORMATION FOR TE
###################################
BLOCK TE # 
      3 3 -1.771217e+02 # rte3x3
###################################
## INFORMATION FOR TU
###################################
BLOCK TU # 
      3 3 -1.213649e+03 # rtu3x3
###################################
## INFORMATION FOR UMIX
###################################
BLOCK UMIX # 
      1 1 9.892306e-01 # ruu1x1
      1 2 -1.463656e-01 # ruu1x2
      2 1 1.463656e-01 # ruu2x1
      2 2 9.892306e-01 # ruu2x2
###################################
## INFORMATION FOR UPMNS
###################################
BLOCK UPMNS # 
      1 1 1.000000e+00 # rmns1x1
      2 2 1.000000e+00 # rmns2x2
      3 3 1.000000e+00 # rmns3x3
###################################
## INFORMATION FOR USQMIX
###################################
BLOCK USQMIX # 
      1 3 4.057757e-01 # rru1x3
      1 6 9.139727e-01 # rru1x6
      2 3 -9.139727e-01 # rru2x3
      2 6 4.057757e-01 # rru2x6
      3 5 1.000000e+00 # rru3x5
      4 4 1.000000e+00 # rru4x4
      5 1 1.000000e+00 # rru5x1
      6 2 1.000000e+00 # rru6x2
###################################
## INFORMATION FOR VCKM
###################################
BLOCK VCKM # 
      1 1 1.000000e+00 # rckm1x1
      2 2 1.000000e+00 # rckm2x2
      3 3 1.000000e+00 # rckm3x3
###################################
## INFORMATION FOR VMIX
###################################
BLOCK VMIX # 
      1 1 9.973824e-01 # rvv1x1
      1 2 -7.230758e-02 # rvv1x2
      2 1 7.230758e-02 # rvv2x1
      2 2 9.973824e-01 # rvv2x2
###################################
## INFORMATION FOR YD
###################################
BLOCK YD # 
      2 2 1.154530e-02 # ryd2x2
      3 3 2.432590e-01 # ryd3x3
###################################
## INFORMATION FOR YE
###################################
BLOCK YE # 
      1 1 2.949820e-05 # rye1x1
      2 2 6.095910e-03 # rye2x2
      3 3 1.025800e-01 # rye3x3
###################################
## INFORMATION FOR YU
###################################
BLOCK YU # 
      2 2 7.100040e-03 # ryu2x2
      3 3 9.893880e-01 # ryu3x3
###################################
## INFORMATION FOR DECAY
###################################
DECAY 6 1.334825e+00 # wt
DECAY 25 4.000000e-03 # wh01
DECAY 35 1.000000e-03 # wh02
DECAY 36 2.495587e-04 # wa01
DECAY 37 3.250011e+00 # wh
DECAY 45 1.000000e-03 # wh03
DECAY 46 3.509479e+00 # wa02
DECAY 1000001 2.000000e+00 # wsd1
DECAY 1000002 2.000000e+00 # wsu1
DECAY 1000003 2.000000e+00 # wsd2
DECAY 1000004 2.000000e+00 # wsu2
DECAY 1000005 2.000000e+00 # wsd3
DECAY 1000006 2.000000e+00 # wsu3
DECAY 1000011 2.000000e+00 # wsl1
DECAY 1000012 2.000000e+00 # wsn1
DECAY 1000013 2.000000e+00 # wsl2
DECAY 1000014 2.000000e+00 # wsn2
DECAY 1000015 2.000000e+00 # wsl3
DECAY 1000016 2.000000e+00 # wsn3
DECAY 1000021 2.000000e+00 # wgo
DECAY 1000023 2.000000e+00 # wneu2
DECAY 1000024 2.000000e+00 # wch1
DECAY 1000025 2.000000e+00 # wneu3
DECAY 1000035 2.000000e+00 # wneu4
DECAY 1000037 2.000000e+00 # wch2
DECAY 1000045 2.000000e+00 # wneu5
DECAY 2000001 2.000000e+00 # wsd4
DECAY 2000002 2.000000e+00 # wsu4
DECAY 2000003 2.000000e+00 # wsd5
DECAY 2000004 2.000000e+00 # wsu5
DECAY 2000005 2.000000e+00 # wsd6
DECAY 2000006 2.000000e+00 # wsu6
DECAY 2000011 2.000000e+00 # wsl4
DECAY 2000013 2.000000e+00 # wsl5
DECAY 2000015 2.000000e+00 # wsl6
DECAY 1 0.000000e+00 # d : 0.0
DECAY 2 0.000000e+00 # u : 0.0
DECAY 3 0.000000e+00 # s : 0.0
DECAY 4 0.000000e+00 # c : 0.0
DECAY 5 0.000000e+00 # b : 0.0
DECAY 11 0.000000e+00 # e- : 0.0
DECAY 12 0.000000e+00 # ve : 0.0
DECAY 13 0.000000e+00 # mu- : 0.0
DECAY 14 0.000000e+00 # vm : 0.0
DECAY 15 0.000000e+00 # tau- : 0.0
DECAY 16 0.000000e+00 # vt : 0.0
DECAY 21 0.000000e+00 # g : 0.0
DECAY 22 0.000000e+00 # a : 0.0
DECAY 23 0.000000e+00 # z : 0.0
DECAY 24 0.000000e+00 # w+ : 0.0
DECAY 1000022 0.000000e+00 # n1 : 0.0
###################################
## INFORMATION FOR QNUMBERS 1000022
###################################
BLOCK QNUMBERS 1000022 #  n1
      1 0 # 3 times electric charge
      2 2 # number of spin states (2s+1)
      3 1 # colour rep (1: singlet, 3: triplet, 8: octet)
      4 0 # particle/antiparticle distinction (0=own anti)
###################################
## INFORMATION FOR QNUMBERS 1000023
###################################
BLOCK QNUMBERS 1000023 #  n2
      1 0 # 3 times electric charge
      2 2 # number of spin states (2s+1)
      3 1 # colour rep (1: singlet, 3: triplet, 8: octet)
      4 0 # particle/antiparticle distinction (0=own anti)
###################################
## INFORMATION FOR QNUMBERS 1000025
###################################
BLOCK QNUMBERS 1000025 #  n3
      1 0 # 3 times electric charge
      2 2 # number of spin states (2s+1)
      3 1 # colour rep (1: singlet, 3: triplet, 8: octet)
      4 0 # particle/antiparticle distinction (0=own anti)
###################################
## INFORMATION FOR QNUMBERS 1000035
###################################
BLOCK QNUMBERS 1000035 #  n4
      1 0 # 3 times electric charge
      2 2 # number of spin states (2s+1)
      3 1 # colour rep (1: singlet, 3: triplet, 8: octet)
      4 0 # particle/antiparticle distinction (0=own anti)
###################################
## INFORMATION FOR QNUMBERS 1000045
###################################
BLOCK QNUMBERS 1000045 #  n5
      1 0 # 3 times electric charge
      2 2 # number of spin states (2s+1)
      3 1 # colour rep (1: singlet, 3: triplet, 8: octet)
      4 0 # particle/antiparticle distinction (0=own anti)
###################################
## INFORMATION FOR QNUMBERS 1000024
###################################
BLOCK QNUMBERS 1000024 #  x1+
      1 3 # 3 times electric charge
      2 2 # number of spin states (2s+1)
      3 1 # colour rep (1: singlet, 3: triplet, 8: octet)
      4 1 # particle/antiparticle distinction (0=own anti)
###################################
## INFORMATION FOR QNUMBERS 1000037
###################################
BLOCK QNUMBERS 1000037 #  x2+
      1 3 # 3 times electric charge
      2 2 # number of spin states (2s+1)
      3 1 # colour rep (1: singlet, 3: triplet, 8: octet)
      4 1 # particle/antiparticle distinction (0=own anti)
###################################
## INFORMATION FOR QNUMBERS 1000021
###################################
BLOCK QNUMBERS 1000021 #  go
      1 0 # 3 times electric charge
      2 2 # number of spin states (2s+1)
      3 8 # colour rep (1: singlet, 3: triplet, 8: octet)
      4 0 # particle/antiparticle distinction (0=own anti)
###################################
## INFORMATION FOR QNUMBERS 35
###################################
BLOCK QNUMBERS 35 #  h02
      1 0 # 3 times electric charge
      2 1 # number of spin states (2s+1)
      3 1 # colour rep (1: singlet, 3: triplet, 8: octet)
      4 0 # particle/antiparticle distinction (0=own anti)
###################################
## INFORMATION FOR QNUMBERS 45
###################################
BLOCK QNUMBERS 45 #  h03
      1 0 # 3 times electric charge
      2 1 # number of spin states (2s+1)
      3 1 # colour rep (1: singlet, 3: triplet, 8: octet)
      4 0 # particle/antiparticle distinction (0=own anti)
###################################
## INFORMATION FOR QNUMBERS 36
###################################
BLOCK QNUMBERS 36 #  a01
      1 0 # 3 times electric charge
      2 1 # number of spin states (2s+1)
      3 1 # colour rep (1: singlet, 3: triplet, 8: octet)
      4 0 # particle/antiparticle distinction (0=own anti)
###################################
## INFORMATION FOR QNUMBERS 46
###################################
BLOCK QNUMBERS 46 #  a02
      1 0 # 3 times electric charge
      2 1 # number of spin states (2s+1)
      3 1 # colour rep (1: singlet, 3: triplet, 8: octet)
      4 0 # particle/antiparticle distinction (0=own anti)
###################################
## INFORMATION FOR QNUMBERS 37
###################################
BLOCK QNUMBERS 37 #  h+
      1 3 # 3 times electric charge
      2 1 # number of spin states (2s+1)
      3 1 # colour rep (1: singlet, 3: triplet, 8: octet)
      4 1 # particle/antiparticle distinction (0=own anti)
###################################
## INFORMATION FOR QNUMBERS 1000012
###################################
BLOCK QNUMBERS 1000012 #  sv1
      1 0 # 3 times electric charge
      2 1 # number of spin states (2s+1)
      3 1 # colour rep (1: singlet, 3: triplet, 8: octet)
      4 1 # particle/antiparticle distinction (0=own anti)
###################################
## INFORMATION FOR QNUMBERS 1000014
###################################
BLOCK QNUMBERS 1000014 #  sv2
      1 0 # 3 times electric charge
      2 1 # number of spin states (2s+1)
      3 1 # colour rep (1: singlet, 3: triplet, 8: octet)
      4 1 # particle/antiparticle distinction (0=own anti)
###################################
## INFORMATION FOR QNUMBERS 1000016
###################################
BLOCK QNUMBERS 1000016 #  sv3
      1 0 # 3 times electric charge
      2 1 # number of spin states (2s+1)
      3 1 # colour rep (1: singlet, 3: triplet, 8: octet)
      4 1 # particle/antiparticle distinction (0=own anti)
###################################
## INFORMATION FOR QNUMBERS 1000011
###################################
BLOCK QNUMBERS 1000011 #  sl1-
      1 -3 # 3 times electric charge
      2 1 # number of spin states (2s+1)
      3 1 # colour rep (1: singlet, 3: triplet, 8: octet)
      4 1 # particle/antiparticle distinction (0=own anti)
###################################
## INFORMATION FOR QNUMBERS 1000013
###################################
BLOCK QNUMBERS 1000013 #  sl2-
      1 -3 # 3 times electric charge
      2 1 # number of spin states (2s+1)
      3 1 # colour rep (1: singlet, 3: triplet, 8: octet)
      4 1 # particle/antiparticle distinction (0=own anti)
###################################
## INFORMATION FOR QNUMBERS 1000015
###################################
BLOCK QNUMBERS 1000015 #  sl3-
      1 -3 # 3 times electric charge
      2 1 # number of spin states (2s+1)
      3 1 # colour rep (1: singlet, 3: triplet, 8: octet)
      4 1 # particle/antiparticle distinction (0=own anti)
###################################
## INFORMATION FOR QNUMBERS 2000011
###################################
BLOCK QNUMBERS 2000011 #  sl4-
      1 -3 # 3 times electric charge
      2 1 # number of spin states (2s+1)
      3 1 # colour rep (1: singlet, 3: triplet, 8: octet)
      4 1 # particle/antiparticle distinction (0=own anti)
###################################
## INFORMATION FOR QNUMBERS 2000013
###################################
BLOCK QNUMBERS 2000013 #  sl5-
      1 -3 # 3 times electric charge
      2 1 # number of spin states (2s+1)
      3 1 # colour rep (1: singlet, 3: triplet, 8: octet)
      4 1 # particle/antiparticle distinction (0=own anti)
###################################
## INFORMATION FOR QNUMBERS 2000015
###################################
BLOCK QNUMBERS 2000015 #  sl6-
      1 -3 # 3 times electric charge
      2 1 # number of spin states (2s+1)
      3 1 # colour rep (1: singlet, 3: triplet, 8: octet)
      4 1 # particle/antiparticle distinction (0=own anti)
###################################
## INFORMATION FOR QNUMBERS 1000002
###################################
BLOCK QNUMBERS 1000002 #  su1
      1 2 # 3 times electric charge
      2 1 # number of spin states (2s+1)
      3 3 # colour rep (1: singlet, 3: triplet, 8: octet)
      4 1 # particle/antiparticle distinction (0=own anti)
###################################
## INFORMATION FOR QNUMBERS 1000004
###################################
BLOCK QNUMBERS 1000004 #  su2
      1 2 # 3 times electric charge
      2 1 # number of spin states (2s+1)
      3 3 # colour rep (1: singlet, 3: triplet, 8: octet)
      4 1 # particle/antiparticle distinction (0=own anti)
###################################
## INFORMATION FOR QNUMBERS 1000006
###################################
BLOCK QNUMBERS 1000006 #  su3
      1 2 # 3 times electric charge
      2 1 # number of spin states (2s+1)
      3 3 # colour rep (1: singlet, 3: triplet, 8: octet)
      4 1 # particle/antiparticle distinction (0=own anti)
###################################
## INFORMATION FOR QNUMBERS 2000002
###################################
BLOCK QNUMBERS 2000002 #  su4
      1 2 # 3 times electric charge
      2 1 # number of spin states (2s+1)
      3 3 # colour rep (1: singlet, 3: triplet, 8: octet)
      4 1 # particle/antiparticle distinction (0=own anti)
###################################
## INFORMATION FOR QNUMBERS 2000004
###################################
BLOCK QNUMBERS 2000004 #  su5
      1 2 # 3 times electric charge
      2 1 # number of spin states (2s+1)
      3 3 # colour rep (1: singlet, 3: triplet, 8: octet)
      4 1 # particle/antiparticle distinction (0=own anti)
###################################
## INFORMATION FOR QNUMBERS 2000006
###################################
BLOCK QNUMBERS 2000006 #  su6
      1 2 # 3 times electric charge
      2 1 # number of spin states (2s+1)
      3 3 # colour rep (1: singlet, 3: triplet, 8: octet)
      4 1 # particle/antiparticle distinction (0=own anti)
###################################
## INFORMATION FOR QNUMBERS 1000001
###################################
BLOCK QNUMBERS 1000001 #  sd1
      1 -1 # 3 times electric charge
      2 1 # number of spin states (2s+1)
      3 3 # colour rep (1: singlet, 3: triplet, 8: octet)
      4 1 # particle/antiparticle distinction (0=own anti)
###################################
## INFORMATION FOR QNUMBERS 1000003
###################################
BLOCK QNUMBERS 1000003 #  sd2
      1 -1 # 3 times electric charge
      2 1 # number of spin states (2s+1)
      3 3 # colour rep (1: singlet, 3: triplet, 8: octet)
      4 1 # particle/antiparticle distinction (0=own anti)
###################################
## INFORMATION FOR QNUMBERS 1000005
###################################
BLOCK QNUMBERS 1000005 #  sd3
      1 -1 # 3 times electric charge
      2 1 # number of spin states (2s+1)
      3 3 # colour rep (1: singlet, 3: triplet, 8: octet)
      4 1 # particle/antiparticle distinction (0=own anti)
###################################
## INFORMATION FOR QNUMBERS 2000001
###################################
BLOCK QNUMBERS 2000001 #  sd4
      1 -1 # 3 times electric charge
      2 1 # number of spin states (2s+1)
      3 3 # colour rep (1: singlet, 3: triplet, 8: octet)
      4 1 # particle/antiparticle distinction (0=own anti)
###################################
## INFORMATION FOR QNUMBERS 2000003
###################################
BLOCK QNUMBERS 2000003 #  sd5
      1 -1 # 3 times electric charge
      2 1 # number of spin states (2s+1)
      3 3 # colour rep (1: singlet, 3: triplet, 8: octet)
      4 1 # particle/antiparticle distinction (0=own anti)
###################################
## INFORMATION FOR QNUMBERS 2000005
###################################
BLOCK QNUMBERS 2000005 #  sd6
      1 -1 # 3 times electric charge
      2 1 # number of spin states (2s+1)
      3 3 # colour rep (1: singlet, 3: triplet, 8: octet)
      4 1 # particle/antiparticle distinction (0=own anti)
</slha>
<initrwgt>
<weightgroup name="NNPDF31_nnlo_as_0118_nf_4_mc_hessian" combine="symmhessian"> # 325500: Hessian NNPDF31_nnlo_as_0118_nf_4_mc_hessian
<weight id="1001" MUR="1.0"  MUF="1.0"  PDF="325500" >  </weight>
<weightgroup name="Central scale variation" combine="envelope">
</weightgroup> PDF 
<weight id="1002" MUR="1.0"  MUF="1.0"  DYN_SCALE="1"  PDF="325500" > dyn_scale_choice=sum pt  </weight>
<weight id="1003" MUR="1.0"  MUF="1.0"  DYN_SCALE="2"  PDF="325500" > dyn_scale_choice=HT  </weight>
<weight id="1004" MUR="1.0"  MUF="1.0"  DYN_SCALE="3"  PDF="325500" > dyn_scale_choice=HT/2  </weight>
<weight id="1005" MUR="1.0"  MUF="1.0"  DYN_SCALE="4"  PDF="325500" > dyn_scale_choice=sqrts  </weight>
<weight id="1006" MUR="2.0"  MUF="1.0"  PDF="325500" > MUR=2.0  </weight>
<weight id="1007" MUR="2.0"  MUF="1.0"  DYN_SCALE="1"  PDF="325500" > MUR=2.0 dyn_scale_choice=sum pt  </weight>
<weight id="1008" MUR="2.0"  MUF="1.0"  DYN_SCALE="2"  PDF="325500" > MUR=2.0 dyn_scale_choice=HT  </weight>
<weight id="1009" MUR="2.0"  MUF="1.0"  DYN_SCALE="3"  PDF="325500" > MUR=2.0 dyn_scale_choice=HT/2  </weight>
<weight id="1010" MUR="2.0"  MUF="1.0"  DYN_SCALE="4"  PDF="325500" > MUR=2.0 dyn_scale_choice=sqrts  </weight>
<weight id="1011" MUR="0.5"  MUF="1.0"  PDF="325500" > MUR=0.5  </weight>
<weight id="1012" MUR="0.5"  MUF="1.0"  DYN_SCALE="1"  PDF="325500" > MUR=0.5 dyn_scale_choice=sum pt  </weight>
<weight id="1013" MUR="0.5"  MUF="1.0"  DYN_SCALE="2"  PDF="325500" > MUR=0.5 dyn_scale_choice=HT  </weight>
<weight id="1014" MUR="0.5"  MUF="1.0"  DYN_SCALE="3"  PDF="325500" > MUR=0.5 dyn_scale_choice=HT/2  </weight>
<weight id="1015" MUR="0.5"  MUF="1.0"  DYN_SCALE="4"  PDF="325500" > MUR=0.5 dyn_scale_choice=sqrts  </weight>
<weight id="1016" MUR="1.0"  MUF="2.0"  PDF="325500" > MUF=2.0  </weight>
<weight id="1017" MUR="1.0"  MUF="2.0"  DYN_SCALE="1"  PDF="325500" > MUF=2.0 dyn_scale_choice=sum pt  </weight>
<weight id="1018" MUR="1.0"  MUF="2.0"  DYN_SCALE="2"  PDF="325500" > MUF=2.0 dyn_scale_choice=HT  </weight>
<weight id="1019" MUR="1.0"  MUF="2.0"  DYN_SCALE="3"  PDF="325500" > MUF=2.0 dyn_scale_choice=HT/2  </weight>
<weight id="1020" MUR="1.0"  MUF="2.0"  DYN_SCALE="4"  PDF="325500" > MUF=2.0 dyn_scale_choice=sqrts  </weight>
<weight id="1021" MUR="2.0"  MUF="2.0"  PDF="325500" > MUR=2.0 MUF=2.0  </weight>
<weight id="1022" MUR="2.0"  MUF="2.0"  DYN_SCALE="1"  PDF="325500" > MUR=2.0 MUF=2.0 dyn_scale_choice=sum pt  </weight>
<weight id="1023" MUR="2.0"  MUF="2.0"  DYN_SCALE="2"  PDF="325500" > MUR=2.0 MUF=2.0 dyn_scale_choice=HT  </weight>
<weight id="1024" MUR="2.0"  MUF="2.0"  DYN_SCALE="3"  PDF="325500" > MUR=2.0 MUF=2.0 dyn_scale_choice=HT/2  </weight>
<weight id="1025" MUR="2.0"  MUF="2.0"  DYN_SCALE="4"  PDF="325500" > MUR=2.0 MUF=2.0 dyn_scale_choice=sqrts  </weight>
<weight id="1026" MUR="0.5"  MUF="2.0"  PDF="325500" > MUR=0.5 MUF=2.0  </weight>
<weight id="1027" MUR="0.5"  MUF="2.0"  DYN_SCALE="1"  PDF="325500" > MUR=0.5 MUF=2.0 dyn_scale_choice=sum pt  </weight>
<weight id="1028" MUR="0.5"  MUF="2.0"  DYN_SCALE="2"  PDF="325500" > MUR=0.5 MUF=2.0 dyn_scale_choice=HT  </weight>
<weight id="1029" MUR="0.5"  MUF="2.0"  DYN_SCALE="3"  PDF="325500" > MUR=0.5 MUF=2.0 dyn_scale_choice=HT/2  </weight>
<weight id="1030" MUR="0.5"  MUF="2.0"  DYN_SCALE="4"  PDF="325500" > MUR=0.5 MUF=2.0 dyn_scale_choice=sqrts  </weight>
<weight id="1031" MUR="1.0"  MUF="0.5"  PDF="325500" > MUF=0.5  </weight>
<weight id="1032" MUR="1.0"  MUF="0.5"  DYN_SCALE="1"  PDF="325500" > MUF=0.5 dyn_scale_choice=sum pt  </weight>
<weight id="1033" MUR="1.0"  MUF="0.5"  DYN_SCALE="2"  PDF="325500" > MUF=0.5 dyn_scale_choice=HT  </weight>
<weight id="1034" MUR="1.0"  MUF="0.5"  DYN_SCALE="3"  PDF="325500" > MUF=0.5 dyn_scale_choice=HT/2  </weight>
<weight id="1035" MUR="1.0"  MUF="0.5"  DYN_SCALE="4"  PDF="325500" > MUF=0.5 dyn_scale_choice=sqrts  </weight>
<weight id="1036" MUR="2.0"  MUF="0.5"  PDF="325500" > MUR=2.0 MUF=0.5  </weight>
<weight id="1037" MUR="2.0"  MUF="0.5"  DYN_SCALE="1"  PDF="325500" > MUR=2.0 MUF=0.5 dyn_scale_choice=sum pt  </weight>
<weight id="1038" MUR="2.0"  MUF="0.5"  DYN_SCALE="2"  PDF="325500" > MUR=2.0 MUF=0.5 dyn_scale_choice=HT  </weight>
<weight id="1039" MUR="2.0"  MUF="0.5"  DYN_SCALE="3"  PDF="325500" > MUR=2.0 MUF=0.5 dyn_scale_choice=HT/2  </weight>
<weight id="1040" MUR="2.0"  MUF="0.5"  DYN_SCALE="4"  PDF="325500" > MUR=2.0 MUF=0.5 dyn_scale_choice=sqrts  </weight>
<weight id="1041" MUR="0.5"  MUF="0.5"  PDF="325500" > MUR=0.5 MUF=0.5  </weight>
<weight id="1042" MUR="0.5"  MUF="0.5"  DYN_SCALE="1"  PDF="325500" > MUR=0.5 MUF=0.5 dyn_scale_choice=sum pt  </weight>
<weight id="1043" MUR="0.5"  MUF="0.5"  DYN_SCALE="2"  PDF="325500" > MUR=0.5 MUF=0.5 dyn_scale_choice=HT  </weight>
<weight id="1044" MUR="0.5"  MUF="0.5"  DYN_SCALE="3"  PDF="325500" > MUR=0.5 MUF=0.5 dyn_scale_choice=HT/2  </weight>
<weight id="1045" MUR="0.5"  MUF="0.5"  DYN_SCALE="4"  PDF="325500" > MUR=0.5 MUF=0.5 dyn_scale_choice=sqrts  </weight>
</weightgroup> # scale
<weightgroup name="Emission scale variation" combine="envelope">
<weight id="1046" MUR="1.0"  MUF="1.0"  ALPSFACT="0.5"  PDF="325500" > alpsfact=0.5  </weight>
<weight id="1047" MUR="1.0"  MUF="1.0"  ALPSFACT="2.0"  PDF="325500" > alpsfact=2.0  </weight>
</weightgroup> # ALPS
<weightgroup name="NNPDF31_nnlo_as_0118_nf_4_mc_hessian" combine="symmhessian"> # 325500: Hessian NNPDF31_nnlo_as_0118_nf_4_mc_hessian
<weight id="1048" MUR="1.0"  MUF="1.0"  PDF="325500" >  </weight>
<weight id="1049" MUR="1.0"  MUF="1.0"  PDF="325501" > PDF=325500 MemberID=1 </weight>
<weight id="1050" MUR="1.0"  MUF="1.0"  PDF="325502" > PDF=325500 MemberID=2 </weight>
<weight id="1051" MUR="1.0"  MUF="1.0"  PDF="325503" > PDF=325500 MemberID=3 </weight>
<weight id="1052" MUR="1.0"  MUF="1.0"  PDF="325504" > PDF=325500 MemberID=4 </weight>
<weight id="1053" MUR="1.0"  MUF="1.0"  PDF="325505" > PDF=325500 MemberID=5 </weight>
<weight id="1054" MUR="1.0"  MUF="1.0"  PDF="325506" > PDF=325500 MemberID=6 </weight>
<weight id="1055" MUR="1.0"  MUF="1.0"  PDF="325507" > PDF=325500 MemberID=7 </weight>
<weight id="1056" MUR="1.0"  MUF="1.0"  PDF="325508" > PDF=325500 MemberID=8 </weight>
<weight id="1057" MUR="1.0"  MUF="1.0"  PDF="325509" > PDF=325500 MemberID=9 </weight>
<weight id="1058" MUR="1.0"  MUF="1.0"  PDF="325510" > PDF=325500 MemberID=10 </weight>
<weight id="1059" MUR="1.0"  MUF="1.0"  PDF="325511" > PDF=325500 MemberID=11 </weight>
<weight id="1060" MUR="1.0"  MUF="1.0"  PDF="325512" > PDF=325500 MemberID=12 </weight>
<weight id="1061" MUR="1.0"  MUF="1.0"  PDF="325513" > PDF=325500 MemberID=13 </weight>
<weight id="1062" MUR="1.0"  MUF="1.0"  PDF="325514" > PDF=325500 MemberID=14 </weight>
<weight id="1063" MUR="1.0"  MUF="1.0"  PDF="325515" > PDF=325500 MemberID=15 </weight>
<weight id="1064" MUR="1.0"  MUF="1.0"  PDF="325516" > PDF=325500 MemberID=16 </weight>
<weight id="1065" MUR="1.0"  MUF="1.0"  PDF="325517" > PDF=325500 MemberID=17 </weight>
<weight id="1066" MUR="1.0"  MUF="1.0"  PDF="325518" > PDF=325500 MemberID=18 </weight>
<weight id="1067" MUR="1.0"  MUF="1.0"  PDF="325519" > PDF=325500 MemberID=19 </weight>
<weight id="1068" MUR="1.0"  MUF="1.0"  PDF="325520" > PDF=325500 MemberID=20 </weight>
<weight id="1069" MUR="1.0"  MUF="1.0"  PDF="325521" > PDF=325500 MemberID=21 </weight>
<weight id="1070" MUR="1.0"  MUF="1.0"  PDF="325522" > PDF=325500 MemberID=22 </weight>
<weight id="1071" MUR="1.0"  MUF="1.0"  PDF="325523" > PDF=325500 MemberID=23 </weight>
<weight id="1072" MUR="1.0"  MUF="1.0"  PDF="325524" > PDF=325500 MemberID=24 </weight>
<weight id="1073" MUR="1.0"  MUF="1.0"  PDF="325525" > PDF=325500 MemberID=25 </weight>
<weight id="1074" MUR="1.0"  MUF="1.0"  PDF="325526" > PDF=325500 MemberID=26 </weight>
<weight id="1075" MUR="1.0"  MUF="1.0"  PDF="325527" > PDF=325500 MemberID=27 </weight>
<weight id="1076" MUR="1.0"  MUF="1.0"  PDF="325528" > PDF=325500 MemberID=28 </weight>
<weight id="1077" MUR="1.0"  MUF="1.0"  PDF="325529" > PDF=325500 MemberID=29 </weight>
<weight id="1078" MUR="1.0"  MUF="1.0"  PDF="325530" > PDF=325500 MemberID=30 </weight>
<weight id="1079" MUR="1.0"  MUF="1.0"  PDF="325531" > PDF=325500 MemberID=31 </weight>
<weight id="1080" MUR="1.0"  MUF="1.0"  PDF="325532" > PDF=325500 MemberID=32 </weight>
<weight id="1081" MUR="1.0"  MUF="1.0"  PDF="325533" > PDF=325500 MemberID=33 </weight>
<weight id="1082" MUR="1.0"  MUF="1.0"  PDF="325534" > PDF=325500 MemberID=34 </weight>
<weight id="1083" MUR="1.0"  MUF="1.0"  PDF="325535" > PDF=325500 MemberID=35 </weight>
<weight id="1084" MUR="1.0"  MUF="1.0"  PDF="325536" > PDF=325500 MemberID=36 </weight>
<weight id="1085" MUR="1.0"  MUF="1.0"  PDF="325537" > PDF=325500 MemberID=37 </weight>
<weight id="1086" MUR="1.0"  MUF="1.0"  PDF="325538" > PDF=325500 MemberID=38 </weight>
<weight id="1087" MUR="1.0"  MUF="1.0"  PDF="325539" > PDF=325500 MemberID=39 </weight>
<weight id="1088" MUR="1.0"  MUF="1.0"  PDF="325540" > PDF=325500 MemberID=40 </weight>
<weight id="1089" MUR="1.0"  MUF="1.0"  PDF="325541" > PDF=325500 MemberID=41 </weight>
<weight id="1090" MUR="1.0"  MUF="1.0"  PDF="325542" > PDF=325500 MemberID=42 </weight>
<weight id="1091" MUR="1.0"  MUF="1.0"  PDF="325543" > PDF=325500 MemberID=43 </weight>
<weight id="1092" MUR="1.0"  MUF="1.0"  PDF="325544" > PDF=325500 MemberID=44 </weight>
<weight id="1093" MUR="1.0"  MUF="1.0"  PDF="325545" > PDF=325500 MemberID=45 </weight>
<weight id="1094" MUR="1.0"  MUF="1.0"  PDF="325546" > PDF=325500 MemberID=46 </weight>
<weight id="1095" MUR="1.0"  MUF="1.0"  PDF="325547" > PDF=325500 MemberID=47 </weight>
<weight id="1096" MUR="1.0"  MUF="1.0"  PDF="325548" > PDF=325500 MemberID=48 </weight>
<weight id="1097" MUR="1.0"  MUF="1.0"  PDF="325549" > PDF=325500 MemberID=49 </weight>
<weight id="1098" MUR="1.0"  MUF="1.0"  PDF="325550" > PDF=325500 MemberID=50 </weight>
<weight id="1099" MUR="1.0"  MUF="1.0"  PDF="325551" > PDF=325500 MemberID=51 </weight>
<weight id="1100" MUR="1.0"  MUF="1.0"  PDF="325552" > PDF=325500 MemberID=52 </weight>
<weight id="1101" MUR="1.0"  MUF="1.0"  PDF="325553" > PDF=325500 MemberID=53 </weight>
<weight id="1102" MUR="1.0"  MUF="1.0"  PDF="325554" > PDF=325500 MemberID=54 </weight>
<weight id="1103" MUR="1.0"  MUF="1.0"  PDF="325555" > PDF=325500 MemberID=55 </weight>
<weight id="1104" MUR="1.0"  MUF="1.0"  PDF="325556" > PDF=325500 MemberID=56 </weight>
<weight id="1105" MUR="1.0"  MUF="1.0"  PDF="325557" > PDF=325500 MemberID=57 </weight>
<weight id="1106" MUR="1.0"  MUF="1.0"  PDF="325558" > PDF=325500 MemberID=58 </weight>
<weight id="1107" MUR="1.0"  MUF="1.0"  PDF="325559" > PDF=325500 MemberID=59 </weight>
<weight id="1108" MUR="1.0"  MUF="1.0"  PDF="325560" > PDF=325500 MemberID=60 </weight>
<weight id="1109" MUR="1.0"  MUF="1.0"  PDF="325561" > PDF=325500 MemberID=61 </weight>
<weight id="1110" MUR="1.0"  MUF="1.0"  PDF="325562" > PDF=325500 MemberID=62 </weight>
<weight id="1111" MUR="1.0"  MUF="1.0"  PDF="325563" > PDF=325500 MemberID=63 </weight>
<weight id="1112" MUR="1.0"  MUF="1.0"  PDF="325564" > PDF=325500 MemberID=64 </weight>
<weight id="1113" MUR="1.0"  MUF="1.0"  PDF="325565" > PDF=325500 MemberID=65 </weight>
<weight id="1114" MUR="1.0"  MUF="1.0"  PDF="325566" > PDF=325500 MemberID=66 </weight>
<weight id="1115" MUR="1.0"  MUF="1.0"  PDF="325567" > PDF=325500 MemberID=67 </weight>
<weight id="1116" MUR="1.0"  MUF="1.0"  PDF="325568" > PDF=325500 MemberID=68 </weight>
<weight id="1117" MUR="1.0"  MUF="1.0"  PDF="325569" > PDF=325500 MemberID=69 </weight>
<weight id="1118" MUR="1.0"  MUF="1.0"  PDF="325570" > PDF=325500 MemberID=70 </weight>
<weight id="1119" MUR="1.0"  MUF="1.0"  PDF="325571" > PDF=325500 MemberID=71 </weight>
<weight id="1120" MUR="1.0"  MUF="1.0"  PDF="325572" > PDF=325500 MemberID=72 </weight>
<weight id="1121" MUR="1.0"  MUF="1.0"  PDF="325573" > PDF=325500 MemberID=73 </weight>
<weight id="1122" MUR="1.0"  MUF="1.0"  PDF="325574" > PDF=325500 MemberID=74 </weight>
<weight id="1123" MUR="1.0"  MUF="1.0"  PDF="325575" > PDF=325500 MemberID=75 </weight>
<weight id="1124" MUR="1.0"  MUF="1.0"  PDF="325576" > PDF=325500 MemberID=76 </weight>
<weight id="1125" MUR="1.0"  MUF="1.0"  PDF="325577" > PDF=325500 MemberID=77 </weight>
<weight id="1126" MUR="1.0"  MUF="1.0"  PDF="325578" > PDF=325500 MemberID=78 </weight>
<weight id="1127" MUR="1.0"  MUF="1.0"  PDF="325579" > PDF=325500 MemberID=79 </weight>
<weight id="1128" MUR="1.0"  MUF="1.0"  PDF="325580" > PDF=325500 MemberID=80 </weight>
<weight id="1129" MUR="1.0"  MUF="1.0"  PDF="325581" > PDF=325500 MemberID=81 </weight>
<weight id="1130" MUR="1.0"  MUF="1.0"  PDF="325582" > PDF=325500 MemberID=82 </weight>
<weight id="1131" MUR="1.0"  MUF="1.0"  PDF="325583" > PDF=325500 MemberID=83 </weight>
<weight id="1132" MUR="1.0"  MUF="1.0"  PDF="325584" > PDF=325500 MemberID=84 </weight>
<weight id="1133" MUR="1.0"  MUF="1.0"  PDF="325585" > PDF=325500 MemberID=85 </weight>
<weight id="1134" MUR="1.0"  MUF="1.0"  PDF="325586" > PDF=325500 MemberID=86 </weight>
<weight id="1135" MUR="1.0"  MUF="1.0"  PDF="325587" > PDF=325500 MemberID=87 </weight>
<weight id="1136" MUR="1.0"  MUF="1.0"  PDF="325588" > PDF=325500 MemberID=88 </weight>
<weight id="1137" MUR="1.0"  MUF="1.0"  PDF="325589" > PDF=325500 MemberID=89 </weight>
<weight id="1138" MUR="1.0"  MUF="1.0"  PDF="325590" > PDF=325500 MemberID=90 </weight>
<weight id="1139" MUR="1.0"  MUF="1.0"  PDF="325591" > PDF=325500 MemberID=91 </weight>
<weight id="1140" MUR="1.0"  MUF="1.0"  PDF="325592" > PDF=325500 MemberID=92 </weight>
<weight id="1141" MUR="1.0"  MUF="1.0"  PDF="325593" > PDF=325500 MemberID=93 </weight>
<weight id="1142" MUR="1.0"  MUF="1.0"  PDF="325594" > PDF=325500 MemberID=94 </weight>
<weight id="1143" MUR="1.0"  MUF="1.0"  PDF="325595" > PDF=325500 MemberID=95 </weight>
<weight id="1144" MUR="1.0"  MUF="1.0"  PDF="325596" > PDF=325500 MemberID=96 </weight>
<weight id="1145" MUR="1.0"  MUF="1.0"  PDF="325597" > PDF=325500 MemberID=97 </weight>
<weight id="1146" MUR="1.0"  MUF="1.0"  PDF="325598" > PDF=325500 MemberID=98 </weight>
<weight id="1147" MUR="1.0"  MUF="1.0"  PDF="325599" > PDF=325500 MemberID=99 </weight>
<weight id="1148" MUR="1.0"  MUF="1.0"  PDF="325600" > PDF=325500 MemberID=100 </weight>
</weightgroup> # PDFSET to PDFSET
<weightgroup name="NNPDF31_nnlo_as_0118_nf_4" combine="replicas"> # 320900: NNPDF3.1 NNLO global fit, nf=4. mem=0 ; average on replicas; mem=1-100 ; PDF replicas
<weight id="1149" MUR="1.0"  MUF="1.0"  PDF="320900" > PDF=320900 MemberID=0 </weight>
<weight id="1150" MUR="1.0"  MUF="1.0"  PDF="320901" > PDF=320900 MemberID=1 </weight>
<weight id="1151" MUR="1.0"  MUF="1.0"  PDF="320902" > PDF=320900 MemberID=2 </weight>
<weight id="1152" MUR="1.0"  MUF="1.0"  PDF="320903" > PDF=320900 MemberID=3 </weight>
<weight id="1153" MUR="1.0"  MUF="1.0"  PDF="320904" > PDF=320900 MemberID=4 </weight>
<weight id="1154" MUR="1.0"  MUF="1.0"  PDF="320905" > PDF=320900 MemberID=5 </weight>
<weight id="1155" MUR="1.0"  MUF="1.0"  PDF="320906" > PDF=320900 MemberID=6 </weight>
<weight id="1156" MUR="1.0"  MUF="1.0"  PDF="320907" > PDF=320900 MemberID=7 </weight>
<weight id="1157" MUR="1.0"  MUF="1.0"  PDF="320908" > PDF=320900 MemberID=8 </weight>
<weight id="1158" MUR="1.0"  MUF="1.0"  PDF="320909" > PDF=320900 MemberID=9 </weight>
<weight id="1159" MUR="1.0"  MUF="1.0"  PDF="320910" > PDF=320900 MemberID=10 </weight>
<weight id="1160" MUR="1.0"  MUF="1.0"  PDF="320911" > PDF=320900 MemberID=11 </weight>
<weight id="1161" MUR="1.0"  MUF="1.0"  PDF="320912" > PDF=320900 MemberID=12 </weight>
<weight id="1162" MUR="1.0"  MUF="1.0"  PDF="320913" > PDF=320900 MemberID=13 </weight>
<weight id="1163" MUR="1.0"  MUF="1.0"  PDF="320914" > PDF=320900 MemberID=14 </weight>
<weight id="1164" MUR="1.0"  MUF="1.0"  PDF="320915" > PDF=320900 MemberID=15 </weight>
<weight id="1165" MUR="1.0"  MUF="1.0"  PDF="320916" > PDF=320900 MemberID=16 </weight>
<weight id="1166" MUR="1.0"  MUF="1.0"  PDF="320917" > PDF=320900 MemberID=17 </weight>
<weight id="1167" MUR="1.0"  MUF="1.0"  PDF="320918" > PDF=320900 MemberID=18 </weight>
<weight id="1168" MUR="1.0"  MUF="1.0"  PDF="320919" > PDF=320900 MemberID=19 </weight>
<weight id="1169" MUR="1.0"  MUF="1.0"  PDF="320920" > PDF=320900 MemberID=20 </weight>
<weight id="1170" MUR="1.0"  MUF="1.0"  PDF="320921" > PDF=320900 MemberID=21 </weight>
<weight id="1171" MUR="1.0"  MUF="1.0"  PDF="320922" > PDF=320900 MemberID=22 </weight>
<weight id="1172" MUR="1.0"  MUF="1.0"  PDF="320923" > PDF=320900 MemberID=23 </weight>
<weight id="1173" MUR="1.0"  MUF="1.0"  PDF="320924" > PDF=320900 MemberID=24 </weight>
<weight id="1174" MUR="1.0"  MUF="1.0"  PDF="320925" > PDF=320900 MemberID=25 </weight>
<weight id="1175" MUR="1.0"  MUF="1.0"  PDF="320926" > PDF=320900 MemberID=26 </weight>
<weight id="1176" MUR="1.0"  MUF="1.0"  PDF="320927" > PDF=320900 MemberID=27 </weight>
<weight id="1177" MUR="1.0"  MUF="1.0"  PDF="320928" > PDF=320900 MemberID=28 </weight>
<weight id="1178" MUR="1.0"  MUF="1.0"  PDF="320929" > PDF=320900 MemberID=29 </weight>
<weight id="1179" MUR="1.0"  MUF="1.0"  PDF="320930" > PDF=320900 MemberID=30 </weight>
<weight id="1180" MUR="1.0"  MUF="1.0"  PDF="320931" > PDF=320900 MemberID=31 </weight>
<weight id="1181" MUR="1.0"  MUF="1.0"  PDF="320932" > PDF=320900 MemberID=32 </weight>
<weight id="1182" MUR="1.0"  MUF="1.0"  PDF="320933" > PDF=320900 MemberID=33 </weight>
<weight id="1183" MUR="1.0"  MUF="1.0"  PDF="320934" > PDF=320900 MemberID=34 </weight>
<weight id="1184" MUR="1.0"  MUF="1.0"  PDF="320935" > PDF=320900 MemberID=35 </weight>
<weight id="1185" MUR="1.0"  MUF="1.0"  PDF="320936" > PDF=320900 MemberID=36 </weight>
<weight id="1186" MUR="1.0"  MUF="1.0"  PDF="320937" > PDF=320900 MemberID=37 </weight>
<weight id="1187" MUR="1.0"  MUF="1.0"  PDF="320938" > PDF=320900 MemberID=38 </weight>
<weight id="1188" MUR="1.0"  MUF="1.0"  PDF="320939" > PDF=320900 MemberID=39 </weight>
<weight id="1189" MUR="1.0"  MUF="1.0"  PDF="320940" > PDF=320900 MemberID=40 </weight>
<weight id="1190" MUR="1.0"  MUF="1.0"  PDF="320941" > PDF=320900 MemberID=41 </weight>
<weight id="1191" MUR="1.0"  MUF="1.0"  PDF="320942" > PDF=320900 MemberID=42 </weight>
<weight id="1192" MUR="1.0"  MUF="1.0"  PDF="320943" > PDF=320900 MemberID=43 </weight>
<weight id="1193" MUR="1.0"  MUF="1.0"  PDF="320944" > PDF=320900 MemberID=44 </weight>
<weight id="1194" MUR="1.0"  MUF="1.0"  PDF="320945" > PDF=320900 MemberID=45 </weight>
<weight id="1195" MUR="1.0"  MUF="1.0"  PDF="320946" > PDF=320900 MemberID=46 </weight>
<weight id="1196" MUR="1.0"  MUF="1.0"  PDF="320947" > PDF=320900 MemberID=47 </weight>
<weight id="1197" MUR="1.0"  MUF="1.0"  PDF="320948" > PDF=320900 MemberID=48 </weight>
<weight id="1198" MUR="1.0"  MUF="1.0"  PDF="320949" > PDF=320900 MemberID=49 </weight>
<weight id="1199" MUR="1.0"  MUF="1.0"  PDF="320950" > PDF=320900 MemberID=50 </weight>
<weight id="1200" MUR="1.0"  MUF="1.0"  PDF="320951" > PDF=320900 MemberID=51 </weight>
<weight id="1201" MUR="1.0"  MUF="1.0"  PDF="320952" > PDF=320900 MemberID=52 </weight>
<weight id="1202" MUR="1.0"  MUF="1.0"  PDF="320953" > PDF=320900 MemberID=53 </weight>
<weight id="1203" MUR="1.0"  MUF="1.0"  PDF="320954" > PDF=320900 MemberID=54 </weight>
<weight id="1204" MUR="1.0"  MUF="1.0"  PDF="320955" > PDF=320900 MemberID=55 </weight>
<weight id="1205" MUR="1.0"  MUF="1.0"  PDF="320956" > PDF=320900 MemberID=56 </weight>
<weight id="1206" MUR="1.0"  MUF="1.0"  PDF="320957" > PDF=320900 MemberID=57 </weight>
<weight id="1207" MUR="1.0"  MUF="1.0"  PDF="320958" > PDF=320900 MemberID=58 </weight>
<weight id="1208" MUR="1.0"  MUF="1.0"  PDF="320959" > PDF=320900 MemberID=59 </weight>
<weight id="1209" MUR="1.0"  MUF="1.0"  PDF="320960" > PDF=320900 MemberID=60 </weight>
<weight id="1210" MUR="1.0"  MUF="1.0"  PDF="320961" > PDF=320900 MemberID=61 </weight>
<weight id="1211" MUR="1.0"  MUF="1.0"  PDF="320962" > PDF=320900 MemberID=62 </weight>
<weight id="1212" MUR="1.0"  MUF="1.0"  PDF="320963" > PDF=320900 MemberID=63 </weight>
<weight id="1213" MUR="1.0"  MUF="1.0"  PDF="320964" > PDF=320900 MemberID=64 </weight>
<weight id="1214" MUR="1.0"  MUF="1.0"  PDF="320965" > PDF=320900 MemberID=65 </weight>
<weight id="1215" MUR="1.0"  MUF="1.0"  PDF="320966" > PDF=320900 MemberID=66 </weight>
<weight id="1216" MUR="1.0"  MUF="1.0"  PDF="320967" > PDF=320900 MemberID=67 </weight>
<weight id="1217" MUR="1.0"  MUF="1.0"  PDF="320968" > PDF=320900 MemberID=68 </weight>
<weight id="1218" MUR="1.0"  MUF="1.0"  PDF="320969" > PDF=320900 MemberID=69 </weight>
<weight id="1219" MUR="1.0"  MUF="1.0"  PDF="320970" > PDF=320900 MemberID=70 </weight>
<weight id="1220" MUR="1.0"  MUF="1.0"  PDF="320971" > PDF=320900 MemberID=71 </weight>
<weight id="1221" MUR="1.0"  MUF="1.0"  PDF="320972" > PDF=320900 MemberID=72 </weight>
<weight id="1222" MUR="1.0"  MUF="1.0"  PDF="320973" > PDF=320900 MemberID=73 </weight>
<weight id="1223" MUR="1.0"  MUF="1.0"  PDF="320974" > PDF=320900 MemberID=74 </weight>
<weight id="1224" MUR="1.0"  MUF="1.0"  PDF="320975" > PDF=320900 MemberID=75 </weight>
<weight id="1225" MUR="1.0"  MUF="1.0"  PDF="320976" > PDF=320900 MemberID=76 </weight>
<weight id="1226" MUR="1.0"  MUF="1.0"  PDF="320977" > PDF=320900 MemberID=77 </weight>
<weight id="1227" MUR="1.0"  MUF="1.0"  PDF="320978" > PDF=320900 MemberID=78 </weight>
<weight id="1228" MUR="1.0"  MUF="1.0"  PDF="320979" > PDF=320900 MemberID=79 </weight>
<weight id="1229" MUR="1.0"  MUF="1.0"  PDF="320980" > PDF=320900 MemberID=80 </weight>
<weight id="1230" MUR="1.0"  MUF="1.0"  PDF="320981" > PDF=320900 MemberID=81 </weight>
<weight id="1231" MUR="1.0"  MUF="1.0"  PDF="320982" > PDF=320900 MemberID=82 </weight>
<weight id="1232" MUR="1.0"  MUF="1.0"  PDF="320983" > PDF=320900 MemberID=83 </weight>
<weight id="1233" MUR="1.0"  MUF="1.0"  PDF="320984" > PDF=320900 MemberID=84 </weight>
<weight id="1234" MUR="1.0"  MUF="1.0"  PDF="320985" > PDF=320900 MemberID=85 </weight>
<weight id="1235" MUR="1.0"  MUF="1.0"  PDF="320986" > PDF=320900 MemberID=86 </weight>
<weight id="1236" MUR="1.0"  MUF="1.0"  PDF="320987" > PDF=320900 MemberID=87 </weight>
<weight id="1237" MUR="1.0"  MUF="1.0"  PDF="320988" > PDF=320900 MemberID=88 </weight>
<weight id="1238" MUR="1.0"  MUF="1.0"  PDF="320989" > PDF=320900 MemberID=89 </weight>
<weight id="1239" MUR="1.0"  MUF="1.0"  PDF="320990" > PDF=320900 MemberID=90 </weight>
<weight id="1240" MUR="1.0"  MUF="1.0"  PDF="320991" > PDF=320900 MemberID=91 </weight>
<weight id="1241" MUR="1.0"  MUF="1.0"  PDF="320992" > PDF=320900 MemberID=92 </weight>
<weight id="1242" MUR="1.0"  MUF="1.0"  PDF="320993" > PDF=320900 MemberID=93 </weight>
<weight id="1243" MUR="1.0"  MUF="1.0"  PDF="320994" > PDF=320900 MemberID=94 </weight>
<weight id="1244" MUR="1.0"  MUF="1.0"  PDF="320995" > PDF=320900 MemberID=95 </weight>
<weight id="1245" MUR="1.0"  MUF="1.0"  PDF="320996" > PDF=320900 MemberID=96 </weight>
<weight id="1246" MUR="1.0"  MUF="1.0"  PDF="320997" > PDF=320900 MemberID=97 </weight>
<weight id="1247" MUR="1.0"  MUF="1.0"  PDF="320998" > PDF=320900 MemberID=98 </weight>
<weight id="1248" MUR="1.0"  MUF="1.0"  PDF="320999" > PDF=320900 MemberID=99 </weight>
<weight id="1249" MUR="1.0"  MUF="1.0"  PDF="321000" > PDF=320900 MemberID=100 </weight>
</weightgroup> # PDFSET to PDF
<weight id="1250" MUR="1.0"  MUF="1.0"  PDF="320500" > PDF=320500 MemberID=0 </weight>
<weightgroup name="NNPDF30_nnlo_nf_4_pdfas" combine="replicas+as"> # 292400: NNPDF3.0 NNLO global fit; mem=0 to mem=100 with alphas(MZ)=0.118, mem=0 ; average on replicas 1-100; mem=1-100 ; PDF replicas with  alphas(MZ)=0.118; mem=101 ; central value for alphas=0.117; mem=102 ; central value for alphas=0.119; maximum number of active flavors NF=4
<weight id="1251" MUR="1.0"  MUF="1.0"  PDF="292400" > PDF=292400 MemberID=0 </weight>
<weight id="1252" MUR="1.0"  MUF="1.0"  PDF="292401" > PDF=292400 MemberID=1 </weight>
<weight id="1253" MUR="1.0"  MUF="1.0"  PDF="292402" > PDF=292400 MemberID=2 </weight>
<weight id="1254" MUR="1.0"  MUF="1.0"  PDF="292403" > PDF=292400 MemberID=3 </weight>
<weight id="1255" MUR="1.0"  MUF="1.0"  PDF="292404" > PDF=292400 MemberID=4 </weight>
<weight id="1256" MUR="1.0"  MUF="1.0"  PDF="292405" > PDF=292400 MemberID=5 </weight>
<weight id="1257" MUR="1.0"  MUF="1.0"  PDF="292406" > PDF=292400 MemberID=6 </weight>
<weight id="1258" MUR="1.0"  MUF="1.0"  PDF="292407" > PDF=292400 MemberID=7 </weight>
<weight id="1259" MUR="1.0"  MUF="1.0"  PDF="292408" > PDF=292400 MemberID=8 </weight>
<weight id="1260" MUR="1.0"  MUF="1.0"  PDF="292409" > PDF=292400 MemberID=9 </weight>
<weight id="1261" MUR="1.0"  MUF="1.0"  PDF="292410" > PDF=292400 MemberID=10 </weight>
<weight id="1262" MUR="1.0"  MUF="1.0"  PDF="292411" > PDF=292400 MemberID=11 </weight>
<weight id="1263" MUR="1.0"  MUF="1.0"  PDF="292412" > PDF=292400 MemberID=12 </weight>
<weight id="1264" MUR="1.0"  MUF="1.0"  PDF="292413" > PDF=292400 MemberID=13 </weight>
<weight id="1265" MUR="1.0"  MUF="1.0"  PDF="292414" > PDF=292400 MemberID=14 </weight>
<weight id="1266" MUR="1.0"  MUF="1.0"  PDF="292415" > PDF=292400 MemberID=15 </weight>
<weight id="1267" MUR="1.0"  MUF="1.0"  PDF="292416" > PDF=292400 MemberID=16 </weight>
<weight id="1268" MUR="1.0"  MUF="1.0"  PDF="292417" > PDF=292400 MemberID=17 </weight>
<weight id="1269" MUR="1.0"  MUF="1.0"  PDF="292418" > PDF=292400 MemberID=18 </weight>
<weight id="1270" MUR="1.0"  MUF="1.0"  PDF="292419" > PDF=292400 MemberID=19 </weight>
<weight id="1271" MUR="1.0"  MUF="1.0"  PDF="292420" > PDF=292400 MemberID=20 </weight>
<weight id="1272" MUR="1.0"  MUF="1.0"  PDF="292421" > PDF=292400 MemberID=21 </weight>
<weight id="1273" MUR="1.0"  MUF="1.0"  PDF="292422" > PDF=292400 MemberID=22 </weight>
<weight id="1274" MUR="1.0"  MUF="1.0"  PDF="292423" > PDF=292400 MemberID=23 </weight>
<weight id="1275" MUR="1.0"  MUF="1.0"  PDF="292424" > PDF=292400 MemberID=24 </weight>
<weight id="1276" MUR="1.0"  MUF="1.0"  PDF="292425" > PDF=292400 MemberID=25 </weight>
<weight id="1277" MUR="1.0"  MUF="1.0"  PDF="292426" > PDF=292400 MemberID=26 </weight>
<weight id="1278" MUR="1.0"  MUF="1.0"  PDF="292427" > PDF=292400 MemberID=27 </weight>
<weight id="1279" MUR="1.0"  MUF="1.0"  PDF="292428" > PDF=292400 MemberID=28 </weight>
<weight id="1280" MUR="1.0"  MUF="1.0"  PDF="292429" > PDF=292400 MemberID=29 </weight>
<weight id="1281" MUR="1.0"  MUF="1.0"  PDF="292430" > PDF=292400 MemberID=30 </weight>
<weight id="1282" MUR="1.0"  MUF="1.0"  PDF="292431" > PDF=292400 MemberID=31 </weight>
<weight id="1283" MUR="1.0"  MUF="1.0"  PDF="292432" > PDF=292400 MemberID=32 </weight>
<weight id="1284" MUR="1.0"  MUF="1.0"  PDF="292433" > PDF=292400 MemberID=33 </weight>
<weight id="1285" MUR="1.0"  MUF="1.0"  PDF="292434" > PDF=292400 MemberID=34 </weight>
<weight id="1286" MUR="1.0"  MUF="1.0"  PDF="292435" > PDF=292400 MemberID=35 </weight>
<weight id="1287" MUR="1.0"  MUF="1.0"  PDF="292436" > PDF=292400 MemberID=36 </weight>
<weight id="1288" MUR="1.0"  MUF="1.0"  PDF="292437" > PDF=292400 MemberID=37 </weight>
<weight id="1289" MUR="1.0"  MUF="1.0"  PDF="292438" > PDF=292400 MemberID=38 </weight>
<weight id="1290" MUR="1.0"  MUF="1.0"  PDF="292439" > PDF=292400 MemberID=39 </weight>
<weight id="1291" MUR="1.0"  MUF="1.0"  PDF="292440" > PDF=292400 MemberID=40 </weight>
<weight id="1292" MUR="1.0"  MUF="1.0"  PDF="292441" > PDF=292400 MemberID=41 </weight>
<weight id="1293" MUR="1.0"  MUF="1.0"  PDF="292442" > PDF=292400 MemberID=42 </weight>
<weight id="1294" MUR="1.0"  MUF="1.0"  PDF="292443" > PDF=292400 MemberID=43 </weight>
<weight id="1295" MUR="1.0"  MUF="1.0"  PDF="292444" > PDF=292400 MemberID=44 </weight>
<weight id="1296" MUR="1.0"  MUF="1.0"  PDF="292445" > PDF=292400 MemberID=45 </weight>
<weight id="1297" MUR="1.0"  MUF="1.0"  PDF="292446" > PDF=292400 MemberID=46 </weight>
<weight id="1298" MUR="1.0"  MUF="1.0"  PDF="292447" > PDF=292400 MemberID=47 </weight>
<weight id="1299" MUR="1.0"  MUF="1.0"  PDF="292448" > PDF=292400 MemberID=48 </weight>
<weight id="1300" MUR="1.0"  MUF="1.0"  PDF="292449" > PDF=292400 MemberID=49 </weight>
<weight id="1301" MUR="1.0"  MUF="1.0"  PDF="292450" > PDF=292400 MemberID=50 </weight>
<weight id="1302" MUR="1.0"  MUF="1.0"  PDF="292451" > PDF=292400 MemberID=51 </weight>
<weight id="1303" MUR="1.0"  MUF="1.0"  PDF="292452" > PDF=292400 MemberID=52 </weight>
<weight id="1304" MUR="1.0"  MUF="1.0"  PDF="292453" > PDF=292400 MemberID=53 </weight>
<weight id="1305" MUR="1.0"  MUF="1.0"  PDF="292454" > PDF=292400 MemberID=54 </weight>
<weight id="1306" MUR="1.0"  MUF="1.0"  PDF="292455" > PDF=292400 MemberID=55 </weight>
<weight id="1307" MUR="1.0"  MUF="1.0"  PDF="292456" > PDF=292400 MemberID=56 </weight>
<weight id="1308" MUR="1.0"  MUF="1.0"  PDF="292457" > PDF=292400 MemberID=57 </weight>
<weight id="1309" MUR="1.0"  MUF="1.0"  PDF="292458" > PDF=292400 MemberID=58 </weight>
<weight id="1310" MUR="1.0"  MUF="1.0"  PDF="292459" > PDF=292400 MemberID=59 </weight>
<weight id="1311" MUR="1.0"  MUF="1.0"  PDF="292460" > PDF=292400 MemberID=60 </weight>
<weight id="1312" MUR="1.0"  MUF="1.0"  PDF="292461" > PDF=292400 MemberID=61 </weight>
<weight id="1313" MUR="1.0"  MUF="1.0"  PDF="292462" > PDF=292400 MemberID=62 </weight>
<weight id="1314" MUR="1.0"  MUF="1.0"  PDF="292463" > PDF=292400 MemberID=63 </weight>
<weight id="1315" MUR="1.0"  MUF="1.0"  PDF="292464" > PDF=292400 MemberID=64 </weight>
<weight id="1316" MUR="1.0"  MUF="1.0"  PDF="292465" > PDF=292400 MemberID=65 </weight>
<weight id="1317" MUR="1.0"  MUF="1.0"  PDF="292466" > PDF=292400 MemberID=66 </weight>
<weight id="1318" MUR="1.0"  MUF="1.0"  PDF="292467" > PDF=292400 MemberID=67 </weight>
<weight id="1319" MUR="1.0"  MUF="1.0"  PDF="292468" > PDF=292400 MemberID=68 </weight>
<weight id="1320" MUR="1.0"  MUF="1.0"  PDF="292469" > PDF=292400 MemberID=69 </weight>
<weight id="1321" MUR="1.0"  MUF="1.0"  PDF="292470" > PDF=292400 MemberID=70 </weight>
<weight id="1322" MUR="1.0"  MUF="1.0"  PDF="292471" > PDF=292400 MemberID=71 </weight>
<weight id="1323" MUR="1.0"  MUF="1.0"  PDF="292472" > PDF=292400 MemberID=72 </weight>
<weight id="1324" MUR="1.0"  MUF="1.0"  PDF="292473" > PDF=292400 MemberID=73 </weight>
<weight id="1325" MUR="1.0"  MUF="1.0"  PDF="292474" > PDF=292400 MemberID=74 </weight>
<weight id="1326" MUR="1.0"  MUF="1.0"  PDF="292475" > PDF=292400 MemberID=75 </weight>
<weight id="1327" MUR="1.0"  MUF="1.0"  PDF="292476" > PDF=292400 MemberID=76 </weight>
<weight id="1328" MUR="1.0"  MUF="1.0"  PDF="292477" > PDF=292400 MemberID=77 </weight>
<weight id="1329" MUR="1.0"  MUF="1.0"  PDF="292478" > PDF=292400 MemberID=78 </weight>
<weight id="1330" MUR="1.0"  MUF="1.0"  PDF="292479" > PDF=292400 MemberID=79 </weight>
<weight id="1331" MUR="1.0"  MUF="1.0"  PDF="292480" > PDF=292400 MemberID=80 </weight>
<weight id="1332" MUR="1.0"  MUF="1.0"  PDF="292481" > PDF=292400 MemberID=81 </weight>
<weight id="1333" MUR="1.0"  MUF="1.0"  PDF="292482" > PDF=292400 MemberID=82 </weight>
<weight id="1334" MUR="1.0"  MUF="1.0"  PDF="292483" > PDF=292400 MemberID=83 </weight>
<weight id="1335" MUR="1.0"  MUF="1.0"  PDF="292484" > PDF=292400 MemberID=84 </weight>
<weight id="1336" MUR="1.0"  MUF="1.0"  PDF="292485" > PDF=292400 MemberID=85 </weight>
<weight id="1337" MUR="1.0"  MUF="1.0"  PDF="292486" > PDF=292400 MemberID=86 </weight>
<weight id="1338" MUR="1.0"  MUF="1.0"  PDF="292487" > PDF=292400 MemberID=87 </weight>
<weight id="1339" MUR="1.0"  MUF="1.0"  PDF="292488" > PDF=292400 MemberID=88 </weight>
<weight id="1340" MUR="1.0"  MUF="1.0"  PDF="292489" > PDF=292400 MemberID=89 </weight>
<weight id="1341" MUR="1.0"  MUF="1.0"  PDF="292490" > PDF=292400 MemberID=90 </weight>
<weight id="1342" MUR="1.0"  MUF="1.0"  PDF="292491" > PDF=292400 MemberID=91 </weight>
<weight id="1343" MUR="1.0"  MUF="1.0"  PDF="292492" > PDF=292400 MemberID=92 </weight>
<weight id="1344" MUR="1.0"  MUF="1.0"  PDF="292493" > PDF=292400 MemberID=93 </weight>
<weight id="1345" MUR="1.0"  MUF="1.0"  PDF="292494" > PDF=292400 MemberID=94 </weight>
<weight id="1346" MUR="1.0"  MUF="1.0"  PDF="292495" > PDF=292400 MemberID=95 </weight>
<weight id="1347" MUR="1.0"  MUF="1.0"  PDF="292496" > PDF=292400 MemberID=96 </weight>
<weight id="1348" MUR="1.0"  MUF="1.0"  PDF="292497" > PDF=292400 MemberID=97 </weight>
<weight id="1349" MUR="1.0"  MUF="1.0"  PDF="292498" > PDF=292400 MemberID=98 </weight>
<weight id="1350" MUR="1.0"  MUF="1.0"  PDF="292499" > PDF=292400 MemberID=99 </weight>
<weight id="1351" MUR="1.0"  MUF="1.0"  PDF="292500" > PDF=292400 MemberID=100 </weight>
<weight id="1352" MUR="1.0"  MUF="1.0"  PDF="292501" > PDF=292400 MemberID=101 </weight>
<weight id="1353" MUR="1.0"  MUF="1.0"  PDF="292502" > PDF=292400 MemberID=102 </weight>
</weightgroup> # PDFSET to PDF
<weight id="1354" MUR="1.0"  MUF="1.0"  PDF="292000" > PDF=292000 MemberID=0 </weight>
<weightgroup name="NNPDF40_nnlo_nf_4_pdfas" combine="replicas+as"> # 335500: NNPDF4.0 NNLO global fit, nf=4. mem=0 ; average on replicas 1-100, mem=1-100 PDF replicas with alphas(MZ)=0.1180; mem=101 ; central value for alphas(MZ)=0.1170; mem=102 ; central value for alphas(MZ)=0.1190; nf=4"
<weight id="1355" MUR="1.0"  MUF="1.0"  PDF="335500" > PDF=335500 MemberID=0 </weight>
<weight id="1356" MUR="1.0"  MUF="1.0"  PDF="335501" > PDF=335500 MemberID=1 </weight>
<weight id="1357" MUR="1.0"  MUF="1.0"  PDF="335502" > PDF=335500 MemberID=2 </weight>
<weight id="1358" MUR="1.0"  MUF="1.0"  PDF="335503" > PDF=335500 MemberID=3 </weight>
<weight id="1359" MUR="1.0"  MUF="1.0"  PDF="335504" > PDF=335500 MemberID=4 </weight>
<weight id="1360" MUR="1.0"  MUF="1.0"  PDF="335505" > PDF=335500 MemberID=5 </weight>
<weight id="1361" MUR="1.0"  MUF="1.0"  PDF="335506" > PDF=335500 MemberID=6 </weight>
<weight id="1362" MUR="1.0"  MUF="1.0"  PDF="335507" > PDF=335500 MemberID=7 </weight>
<weight id="1363" MUR="1.0"  MUF="1.0"  PDF="335508" > PDF=335500 MemberID=8 </weight>
<weight id="1364" MUR="1.0"  MUF="1.0"  PDF="335509" > PDF=335500 MemberID=9 </weight>
<weight id="1365" MUR="1.0"  MUF="1.0"  PDF="335510" > PDF=335500 MemberID=10 </weight>
<weight id="1366" MUR="1.0"  MUF="1.0"  PDF="335511" > PDF=335500 MemberID=11 </weight>
<weight id="1367" MUR="1.0"  MUF="1.0"  PDF="335512" > PDF=335500 MemberID=12 </weight>
<weight id="1368" MUR="1.0"  MUF="1.0"  PDF="335513" > PDF=335500 MemberID=13 </weight>
<weight id="1369" MUR="1.0"  MUF="1.0"  PDF="335514" > PDF=335500 MemberID=14 </weight>
<weight id="1370" MUR="1.0"  MUF="1.0"  PDF="335515" > PDF=335500 MemberID=15 </weight>
<weight id="1371" MUR="1.0"  MUF="1.0"  PDF="335516" > PDF=335500 MemberID=16 </weight>
<weight id="1372" MUR="1.0"  MUF="1.0"  PDF="335517" > PDF=335500 MemberID=17 </weight>
<weight id="1373" MUR="1.0"  MUF="1.0"  PDF="335518" > PDF=335500 MemberID=18 </weight>
<weight id="1374" MUR="1.0"  MUF="1.0"  PDF="335519" > PDF=335500 MemberID=19 </weight>
<weight id="1375" MUR="1.0"  MUF="1.0"  PDF="335520" > PDF=335500 MemberID=20 </weight>
<weight id="1376" MUR="1.0"  MUF="1.0"  PDF="335521" > PDF=335500 MemberID=21 </weight>
<weight id="1377" MUR="1.0"  MUF="1.0"  PDF="335522" > PDF=335500 MemberID=22 </weight>
<weight id="1378" MUR="1.0"  MUF="1.0"  PDF="335523" > PDF=335500 MemberID=23 </weight>
<weight id="1379" MUR="1.0"  MUF="1.0"  PDF="335524" > PDF=335500 MemberID=24 </weight>
<weight id="1380" MUR="1.0"  MUF="1.0"  PDF="335525" > PDF=335500 MemberID=25 </weight>
<weight id="1381" MUR="1.0"  MUF="1.0"  PDF="335526" > PDF=335500 MemberID=26 </weight>
<weight id="1382" MUR="1.0"  MUF="1.0"  PDF="335527" > PDF=335500 MemberID=27 </weight>
<weight id="1383" MUR="1.0"  MUF="1.0"  PDF="335528" > PDF=335500 MemberID=28 </weight>
<weight id="1384" MUR="1.0"  MUF="1.0"  PDF="335529" > PDF=335500 MemberID=29 </weight>
<weight id="1385" MUR="1.0"  MUF="1.0"  PDF="335530" > PDF=335500 MemberID=30 </weight>
<weight id="1386" MUR="1.0"  MUF="1.0"  PDF="335531" > PDF=335500 MemberID=31 </weight>
<weight id="1387" MUR="1.0"  MUF="1.0"  PDF="335532" > PDF=335500 MemberID=32 </weight>
<weight id="1388" MUR="1.0"  MUF="1.0"  PDF="335533" > PDF=335500 MemberID=33 </weight>
<weight id="1389" MUR="1.0"  MUF="1.0"  PDF="335534" > PDF=335500 MemberID=34 </weight>
<weight id="1390" MUR="1.0"  MUF="1.0"  PDF="335535" > PDF=335500 MemberID=35 </weight>
<weight id="1391" MUR="1.0"  MUF="1.0"  PDF="335536" > PDF=335500 MemberID=36 </weight>
<weight id="1392" MUR="1.0"  MUF="1.0"  PDF="335537" > PDF=335500 MemberID=37 </weight>
<weight id="1393" MUR="1.0"  MUF="1.0"  PDF="335538" > PDF=335500 MemberID=38 </weight>
<weight id="1394" MUR="1.0"  MUF="1.0"  PDF="335539" > PDF=335500 MemberID=39 </weight>
<weight id="1395" MUR="1.0"  MUF="1.0"  PDF="335540" > PDF=335500 MemberID=40 </weight>
<weight id="1396" MUR="1.0"  MUF="1.0"  PDF="335541" > PDF=335500 MemberID=41 </weight>
<weight id="1397" MUR="1.0"  MUF="1.0"  PDF="335542" > PDF=335500 MemberID=42 </weight>
<weight id="1398" MUR="1.0"  MUF="1.0"  PDF="335543" > PDF=335500 MemberID=43 </weight>
<weight id="1399" MUR="1.0"  MUF="1.0"  PDF="335544" > PDF=335500 MemberID=44 </weight>
<weight id="1400" MUR="1.0"  MUF="1.0"  PDF="335545" > PDF=335500 MemberID=45 </weight>
<weight id="1401" MUR="1.0"  MUF="1.0"  PDF="335546" > PDF=335500 MemberID=46 </weight>
<weight id="1402" MUR="1.0"  MUF="1.0"  PDF="335547" > PDF=335500 MemberID=47 </weight>
<weight id="1403" MUR="1.0"  MUF="1.0"  PDF="335548" > PDF=335500 MemberID=48 </weight>
<weight id="1404" MUR="1.0"  MUF="1.0"  PDF="335549" > PDF=335500 MemberID=49 </weight>
<weight id="1405" MUR="1.0"  MUF="1.0"  PDF="335550" > PDF=335500 MemberID=50 </weight>
<weight id="1406" MUR="1.0"  MUF="1.0"  PDF="335551" > PDF=335500 MemberID=51 </weight>
<weight id="1407" MUR="1.0"  MUF="1.0"  PDF="335552" > PDF=335500 MemberID=52 </weight>
<weight id="1408" MUR="1.0"  MUF="1.0"  PDF="335553" > PDF=335500 MemberID=53 </weight>
<weight id="1409" MUR="1.0"  MUF="1.0"  PDF="335554" > PDF=335500 MemberID=54 </weight>
<weight id="1410" MUR="1.0"  MUF="1.0"  PDF="335555" > PDF=335500 MemberID=55 </weight>
<weight id="1411" MUR="1.0"  MUF="1.0"  PDF="335556" > PDF=335500 MemberID=56 </weight>
<weight id="1412" MUR="1.0"  MUF="1.0"  PDF="335557" > PDF=335500 MemberID=57 </weight>
<weight id="1413" MUR="1.0"  MUF="1.0"  PDF="335558" > PDF=335500 MemberID=58 </weight>
<weight id="1414" MUR="1.0"  MUF="1.0"  PDF="335559" > PDF=335500 MemberID=59 </weight>
<weight id="1415" MUR="1.0"  MUF="1.0"  PDF="335560" > PDF=335500 MemberID=60 </weight>
<weight id="1416" MUR="1.0"  MUF="1.0"  PDF="335561" > PDF=335500 MemberID=61 </weight>
<weight id="1417" MUR="1.0"  MUF="1.0"  PDF="335562" > PDF=335500 MemberID=62 </weight>
<weight id="1418" MUR="1.0"  MUF="1.0"  PDF="335563" > PDF=335500 MemberID=63 </weight>
<weight id="1419" MUR="1.0"  MUF="1.0"  PDF="335564" > PDF=335500 MemberID=64 </weight>
<weight id="1420" MUR="1.0"  MUF="1.0"  PDF="335565" > PDF=335500 MemberID=65 </weight>
<weight id="1421" MUR="1.0"  MUF="1.0"  PDF="335566" > PDF=335500 MemberID=66 </weight>
<weight id="1422" MUR="1.0"  MUF="1.0"  PDF="335567" > PDF=335500 MemberID=67 </weight>
<weight id="1423" MUR="1.0"  MUF="1.0"  PDF="335568" > PDF=335500 MemberID=68 </weight>
<weight id="1424" MUR="1.0"  MUF="1.0"  PDF="335569" > PDF=335500 MemberID=69 </weight>
<weight id="1425" MUR="1.0"  MUF="1.0"  PDF="335570" > PDF=335500 MemberID=70 </weight>
<weight id="1426" MUR="1.0"  MUF="1.0"  PDF="335571" > PDF=335500 MemberID=71 </weight>
<weight id="1427" MUR="1.0"  MUF="1.0"  PDF="335572" > PDF=335500 MemberID=72 </weight>
<weight id="1428" MUR="1.0"  MUF="1.0"  PDF="335573" > PDF=335500 MemberID=73 </weight>
<weight id="1429" MUR="1.0"  MUF="1.0"  PDF="335574" > PDF=335500 MemberID=74 </weight>
<weight id="1430" MUR="1.0"  MUF="1.0"  PDF="335575" > PDF=335500 MemberID=75 </weight>
<weight id="1431" MUR="1.0"  MUF="1.0"  PDF="335576" > PDF=335500 MemberID=76 </weight>
<weight id="1432" MUR="1.0"  MUF="1.0"  PDF="335577" > PDF=335500 MemberID=77 </weight>
<weight id="1433" MUR="1.0"  MUF="1.0"  PDF="335578" > PDF=335500 MemberID=78 </weight>
<weight id="1434" MUR="1.0"  MUF="1.0"  PDF="335579" > PDF=335500 MemberID=79 </weight>
<weight id="1435" MUR="1.0"  MUF="1.0"  PDF="335580" > PDF=335500 MemberID=80 </weight>
<weight id="1436" MUR="1.0"  MUF="1.0"  PDF="335581" > PDF=335500 MemberID=81 </weight>
<weight id="1437" MUR="1.0"  MUF="1.0"  PDF="335582" > PDF=335500 MemberID=82 </weight>
<weight id="1438" MUR="1.0"  MUF="1.0"  PDF="335583" > PDF=335500 MemberID=83 </weight>
<weight id="1439" MUR="1.0"  MUF="1.0"  PDF="335584" > PDF=335500 MemberID=84 </weight>
<weight id="1440" MUR="1.0"  MUF="1.0"  PDF="335585" > PDF=335500 MemberID=85 </weight>
<weight id="1441" MUR="1.0"  MUF="1.0"  PDF="335586" > PDF=335500 MemberID=86 </weight>
<weight id="1442" MUR="1.0"  MUF="1.0"  PDF="335587" > PDF=335500 MemberID=87 </weight>
<weight id="1443" MUR="1.0"  MUF="1.0"  PDF="335588" > PDF=335500 MemberID=88 </weight>
<weight id="1444" MUR="1.0"  MUF="1.0"  PDF="335589" > PDF=335500 MemberID=89 </weight>
<weight id="1445" MUR="1.0"  MUF="1.0"  PDF="335590" > PDF=335500 MemberID=90 </weight>
<weight id="1446" MUR="1.0"  MUF="1.0"  PDF="335591" > PDF=335500 MemberID=91 </weight>
<weight id="1447" MUR="1.0"  MUF="1.0"  PDF="335592" > PDF=335500 MemberID=92 </weight>
<weight id="1448" MUR="1.0"  MUF="1.0"  PDF="335593" > PDF=335500 MemberID=93 </weight>
<weight id="1449" MUR="1.0"  MUF="1.0"  PDF="335594" > PDF=335500 MemberID=94 </weight>
<weight id="1450" MUR="1.0"  MUF="1.0"  PDF="335595" > PDF=335500 MemberID=95 </weight>
<weight id="1451" MUR="1.0"  MUF="1.0"  PDF="335596" > PDF=335500 MemberID=96 </weight>
<weight id="1452" MUR="1.0"  MUF="1.0"  PDF="335597" > PDF=335500 MemberID=97 </weight>
<weight id="1453" MUR="1.0"  MUF="1.0"  PDF="335598" > PDF=335500 MemberID=98 </weight>
<weight id="1454" MUR="1.0"  MUF="1.0"  PDF="335599" > PDF=335500 MemberID=99 </weight>
<weight id="1455" MUR="1.0"  MUF="1.0"  PDF="335600" > PDF=335500 MemberID=100 </weight>
<weight id="1456" MUR="1.0"  MUF="1.0"  PDF="335601" > PDF=335500 MemberID=101 </weight>
<weight id="1457" MUR="1.0"  MUF="1.0"  PDF="335602" > PDF=335500 MemberID=102 </weight>
</weightgroup> # PDFSET to PDF
<weight id="1458" MUR="1.0"  MUF="1.0"  PDF="335700" > PDF=335700 MemberID=0 </weight>
<weight id="1459" MUR="1.0"  MUF="1.0"  PDF="13091" > PDF=13091 MemberID=0 </weight>
<weight id="1460" MUR="1.0"  MUF="1.0"  PDF="13191" > PDF=13191 MemberID=0 </weight>
<weight id="1461" MUR="1.0"  MUF="1.0"  PDF="13202" > PDF=13202 MemberID=0 </weight>
<weightgroup name="MSHT20nnlo_nf4" combine="hessian"> # 27810: "MSHT 2020 NNLO (68% C.L.) set at default fixed alpha_S(M_Z) = 0.118 in the 4-flavour scheme. Note this alpha_S(M_Z) value is the 5-flavour scheme value which is then translated into the 4-flavour scheme. This set has 65 members. mem=0 ; central value; mem=1-64 ; 32 eigenvector sets (+/- directions). Web address: www.hep.ucl.ac.uk/msht"
<weight id="1462" MUR="1.0"  MUF="1.0"  PDF="27810" > PDF=27810 MemberID=0 </weight>
<weight id="1463" MUR="1.0"  MUF="1.0"  PDF="27811" > PDF=27810 MemberID=1 </weight>
<weight id="1464" MUR="1.0"  MUF="1.0"  PDF="27812" > PDF=27810 MemberID=2 </weight>
<weight id="1465" MUR="1.0"  MUF="1.0"  PDF="27813" > PDF=27810 MemberID=3 </weight>
<weight id="1466" MUR="1.0"  MUF="1.0"  PDF="27814" > PDF=27810 MemberID=4 </weight>
<weight id="1467" MUR="1.0"  MUF="1.0"  PDF="27815" > PDF=27810 MemberID=5 </weight>
<weight id="1468" MUR="1.0"  MUF="1.0"  PDF="27816" > PDF=27810 MemberID=6 </weight>
<weight id="1469" MUR="1.0"  MUF="1.0"  PDF="27817" > PDF=27810 MemberID=7 </weight>
<weight id="1470" MUR="1.0"  MUF="1.0"  PDF="27818" > PDF=27810 MemberID=8 </weight>
<weight id="1471" MUR="1.0"  MUF="1.0"  PDF="27819" > PDF=27810 MemberID=9 </weight>
<weight id="1472" MUR="1.0"  MUF="1.0"  PDF="27820" > PDF=27810 MemberID=10 </weight>
<weight id="1473" MUR="1.0"  MUF="1.0"  PDF="27821" > PDF=27810 MemberID=11 </weight>
<weight id="1474" MUR="1.0"  MUF="1.0"  PDF="27822" > PDF=27810 MemberID=12 </weight>
<weight id="1475" MUR="1.0"  MUF="1.0"  PDF="27823" > PDF=27810 MemberID=13 </weight>
<weight id="1476" MUR="1.0"  MUF="1.0"  PDF="27824" > PDF=27810 MemberID=14 </weight>
<weight id="1477" MUR="1.0"  MUF="1.0"  PDF="27825" > PDF=27810 MemberID=15 </weight>
<weight id="1478" MUR="1.0"  MUF="1.0"  PDF="27826" > PDF=27810 MemberID=16 </weight>
<weight id="1479" MUR="1.0"  MUF="1.0"  PDF="27827" > PDF=27810 MemberID=17 </weight>
<weight id="1480" MUR="1.0"  MUF="1.0"  PDF="27828" > PDF=27810 MemberID=18 </weight>
<weight id="1481" MUR="1.0"  MUF="1.0"  PDF="27829" > PDF=27810 MemberID=19 </weight>
<weight id="1482" MUR="1.0"  MUF="1.0"  PDF="27830" > PDF=27810 MemberID=20 </weight>
<weight id="1483" MUR="1.0"  MUF="1.0"  PDF="27831" > PDF=27810 MemberID=21 </weight>
<weight id="1484" MUR="1.0"  MUF="1.0"  PDF="27832" > PDF=27810 MemberID=22 </weight>
<weight id="1485" MUR="1.0"  MUF="1.0"  PDF="27833" > PDF=27810 MemberID=23 </weight>
<weight id="1486" MUR="1.0"  MUF="1.0"  PDF="27834" > PDF=27810 MemberID=24 </weight>
<weight id="1487" MUR="1.0"  MUF="1.0"  PDF="27835" > PDF=27810 MemberID=25 </weight>
<weight id="1488" MUR="1.0"  MUF="1.0"  PDF="27836" > PDF=27810 MemberID=26 </weight>
<weight id="1489" MUR="1.0"  MUF="1.0"  PDF="27837" > PDF=27810 MemberID=27 </weight>
<weight id="1490" MUR="1.0"  MUF="1.0"  PDF="27838" > PDF=27810 MemberID=28 </weight>
<weight id="1491" MUR="1.0"  MUF="1.0"  PDF="27839" > PDF=27810 MemberID=29 </weight>
<weight id="1492" MUR="1.0"  MUF="1.0"  PDF="27840" > PDF=27810 MemberID=30 </weight>
<weight id="1493" MUR="1.0"  MUF="1.0"  PDF="27841" > PDF=27810 MemberID=31 </weight>
<weight id="1494" MUR="1.0"  MUF="1.0"  PDF="27842" > PDF=27810 MemberID=32 </weight>
<weight id="1495" MUR="1.0"  MUF="1.0"  PDF="27843" > PDF=27810 MemberID=33 </weight>
<weight id="1496" MUR="1.0"  MUF="1.0"  PDF="27844" > PDF=27810 MemberID=34 </weight>
<weight id="1497" MUR="1.0"  MUF="1.0"  PDF="27845" > PDF=27810 MemberID=35 </weight>
<weight id="1498" MUR="1.0"  MUF="1.0"  PDF="27846" > PDF=27810 MemberID=36 </weight>
<weight id="1499" MUR="1.0"  MUF="1.0"  PDF="27847" > PDF=27810 MemberID=37 </weight>
<weight id="1500" MUR="1.0"  MUF="1.0"  PDF="27848" > PDF=27810 MemberID=38 </weight>
<weight id="1501" MUR="1.0"  MUF="1.0"  PDF="27849" > PDF=27810 MemberID=39 </weight>
<weight id="1502" MUR="1.0"  MUF="1.0"  PDF="27850" > PDF=27810 MemberID=40 </weight>
<weight id="1503" MUR="1.0"  MUF="1.0"  PDF="27851" > PDF=27810 MemberID=41 </weight>
<weight id="1504" MUR="1.0"  MUF="1.0"  PDF="27852" > PDF=27810 MemberID=42 </weight>
<weight id="1505" MUR="1.0"  MUF="1.0"  PDF="27853" > PDF=27810 MemberID=43 </weight>
<weight id="1506" MUR="1.0"  MUF="1.0"  PDF="27854" > PDF=27810 MemberID=44 </weight>
<weight id="1507" MUR="1.0"  MUF="1.0"  PDF="27855" > PDF=27810 MemberID=45 </weight>
<weight id="1508" MUR="1.0"  MUF="1.0"  PDF="27856" > PDF=27810 MemberID=46 </weight>
<weight id="1509" MUR="1.0"  MUF="1.0"  PDF="27857" > PDF=27810 MemberID=47 </weight>
<weight id="1510" MUR="1.0"  MUF="1.0"  PDF="27858" > PDF=27810 MemberID=48 </weight>
<weight id="1511" MUR="1.0"  MUF="1.0"  PDF="27859" > PDF=27810 MemberID=49 </weight>
<weight id="1512" MUR="1.0"  MUF="1.0"  PDF="27860" > PDF=27810 MemberID=50 </weight>
<weight id="1513" MUR="1.0"  MUF="1.0"  PDF="27861" > PDF=27810 MemberID=51 </weight>
<weight id="1514" MUR="1.0"  MUF="1.0"  PDF="27862" > PDF=27810 MemberID=52 </weight>
<weight id="1515" MUR="1.0"  MUF="1.0"  PDF="27863" > PDF=27810 MemberID=53 </weight>
<weight id="1516" MUR="1.0"  MUF="1.0"  PDF="27864" > PDF=27810 MemberID=54 </weight>
<weight id="1517" MUR="1.0"  MUF="1.0"  PDF="27865" > PDF=27810 MemberID=55 </weight>
<weight id="1518" MUR="1.0"  MUF="1.0"  PDF="27866" > PDF=27810 MemberID=56 </weight>
<weight id="1519" MUR="1.0"  MUF="1.0"  PDF="27867" > PDF=27810 MemberID=57 </weight>
<weight id="1520" MUR="1.0"  MUF="1.0"  PDF="27868" > PDF=27810 MemberID=58 </weight>
<weight id="1521" MUR="1.0"  MUF="1.0"  PDF="27869" > PDF=27810 MemberID=59 </weight>
</weightgroup> # PDFSET to PDFSET
<weightgroup name="MSHT20nnlo_as_smallrange_nf4" combine="unknown"> # 27870: "MSHT 2020 NNLO alphas variation set (fits for a small range of alpha_S(M_Z) values) in the 4-flavour scheme. Note the alpha_S(M_Z) values given here in the member assignments are the 5-flavour scheme values, which are then translated into the 4-flavour scheme. This set has 3 members. mem=0 ; default fixed alpha_S(M_Z) = 0.118; mem=1-2 ; alpha_S(M_Z) = 0.117, 0.119. Web address: www.hep.ucl.ac.uk/msht"
<weight id="1522" MUR="1.0"  MUF="1.0"  PDF="27870" > PDF=27810 MemberID=60 </weight>
</weightgroup> # PDFSET to PDF
<weight id="1523" MUR="1.0"  MUF="1.0"  PDF="27871" > PDF=27810 MemberID=61 </weight>
<weight id="1524" MUR="1.0"  MUF="1.0"  PDF="27872" > PDF=27810 MemberID=62 </weight>
<weight id="1525" MUR="1.0"  MUF="1.0"  PDF="27873" > PDF=27810 MemberID=63 </weight>
<weight id="1526" MUR="1.0"  MUF="1.0"  PDF="27874" > PDF=27810 MemberID=64 </weight>
<weightgroup name="MSHT20nnlo_as_smallrange_nf4" combine="unknown"> # 27870: "MSHT 2020 NNLO alphas variation set (fits for a small range of alpha_S(M_Z) values) in the 4-flavour scheme. Note the alpha_S(M_Z) values given here in the member assignments are the 5-flavour scheme values, which are then translated into the 4-flavour scheme. This set has 3 members. mem=0 ; default fixed alpha_S(M_Z) = 0.118; mem=1-2 ; alpha_S(M_Z) = 0.117, 0.119. Web address: www.hep.ucl.ac.uk/msht"
<weight id="1527" MUR="1.0"  MUF="1.0"  PDF="27870" > PDF=27870 MemberID=0 </weight>
<weight id="1528" MUR="1.0"  MUF="1.0"  PDF="27871" > PDF=27870 MemberID=1 </weight>
<weight id="1529" MUR="1.0"  MUF="1.0"  PDF="27872" > PDF=27870 MemberID=2 </weight>
</weightgroup> # PDFSET to PDF
<weight id="1530" MUR="1.0"  MUF="1.0"  PDF="27610" > PDF=27610 MemberID=0 </weight>
<weightgroup name="PDF4LHC21_40_pdfas_nf4" combine="symmhessian+as"> # 93700: "The PDF4LHC21 Hessian 40 set, 3-loop QCD, alphas(MZ)=0.118, nf=4, large-x positivity. 1+40 symmetric eigenvector sets at alphas(MZ)=0.118; 41 and 42: alphas(MZ)=0.117 and 0.119"
<weight id="1531" MUR="1.0"  MUF="1.0"  PDF="93700" > PDF=93700 MemberID=0 </weight>
<weight id="1532" MUR="1.0"  MUF="1.0"  PDF="93701" > PDF=93700 MemberID=1 </weight>
<weight id="1533" MUR="1.0"  MUF="1.0"  PDF="93702" > PDF=93700 MemberID=2 </weight>
<weight id="1534" MUR="1.0"  MUF="1.0"  PDF="93703" > PDF=93700 MemberID=3 </weight>
<weight id="1535" MUR="1.0"  MUF="1.0"  PDF="93704" > PDF=93700 MemberID=4 </weight>
<weight id="1536" MUR="1.0"  MUF="1.0"  PDF="93705" > PDF=93700 MemberID=5 </weight>
<weight id="1537" MUR="1.0"  MUF="1.0"  PDF="93706" > PDF=93700 MemberID=6 </weight>
<weight id="1538" MUR="1.0"  MUF="1.0"  PDF="93707" > PDF=93700 MemberID=7 </weight>
<weight id="1539" MUR="1.0"  MUF="1.0"  PDF="93708" > PDF=93700 MemberID=8 </weight>
<weight id="1540" MUR="1.0"  MUF="1.0"  PDF="93709" > PDF=93700 MemberID=9 </weight>
<weight id="1541" MUR="1.0"  MUF="1.0"  PDF="93710" > PDF=93700 MemberID=10 </weight>
<weight id="1542" MUR="1.0"  MUF="1.0"  PDF="93711" > PDF=93700 MemberID=11 </weight>
<weight id="1543" MUR="1.0"  MUF="1.0"  PDF="93712" > PDF=93700 MemberID=12 </weight>
<weight id="1544" MUR="1.0"  MUF="1.0"  PDF="93713" > PDF=93700 MemberID=13 </weight>
<weight id="1545" MUR="1.0"  MUF="1.0"  PDF="93714" > PDF=93700 MemberID=14 </weight>
<weight id="1546" MUR="1.0"  MUF="1.0"  PDF="93715" > PDF=93700 MemberID=15 </weight>
<weight id="1547" MUR="1.0"  MUF="1.0"  PDF="93716" > PDF=93700 MemberID=16 </weight>
<weight id="1548" MUR="1.0"  MUF="1.0"  PDF="93717" > PDF=93700 MemberID=17 </weight>
<weight id="1549" MUR="1.0"  MUF="1.0"  PDF="93718" > PDF=93700 MemberID=18 </weight>
<weight id="1550" MUR="1.0"  MUF="1.0"  PDF="93719" > PDF=93700 MemberID=19 </weight>
<weight id="1551" MUR="1.0"  MUF="1.0"  PDF="93720" > PDF=93700 MemberID=20 </weight>
<weight id="1552" MUR="1.0"  MUF="1.0"  PDF="93721" > PDF=93700 MemberID=21 </weight>
<weight id="1553" MUR="1.0"  MUF="1.0"  PDF="93722" > PDF=93700 MemberID=22 </weight>
<weight id="1554" MUR="1.0"  MUF="1.0"  PDF="93723" > PDF=93700 MemberID=23 </weight>
<weight id="1555" MUR="1.0"  MUF="1.0"  PDF="93724" > PDF=93700 MemberID=24 </weight>
<weight id="1556" MUR="1.0"  MUF="1.0"  PDF="93725" > PDF=93700 MemberID=25 </weight>
<weight id="1557" MUR="1.0"  MUF="1.0"  PDF="93726" > PDF=93700 MemberID=26 </weight>
<weight id="1558" MUR="1.0"  MUF="1.0"  PDF="93727" > PDF=93700 MemberID=27 </weight>
<weight id="1559" MUR="1.0"  MUF="1.0"  PDF="93728" > PDF=93700 MemberID=28 </weight>
<weight id="1560" MUR="1.0"  MUF="1.0"  PDF="93729" > PDF=93700 MemberID=29 </weight>
<weight id="1561" MUR="1.0"  MUF="1.0"  PDF="93730" > PDF=93700 MemberID=30 </weight>
<weight id="1562" MUR="1.0"  MUF="1.0"  PDF="93731" > PDF=93700 MemberID=31 </weight>
<weight id="1563" MUR="1.0"  MUF="1.0"  PDF="93732" > PDF=93700 MemberID=32 </weight>
<weight id="1564" MUR="1.0"  MUF="1.0"  PDF="93733" > PDF=93700 MemberID=33 </weight>
<weight id="1565" MUR="1.0"  MUF="1.0"  PDF="93734" > PDF=93700 MemberID=34 </weight>
<weight id="1566" MUR="1.0"  MUF="1.0"  PDF="93735" > PDF=93700 MemberID=35 </weight>
<weight id="1567" MUR="1.0"  MUF="1.0"  PDF="93736" > PDF=93700 MemberID=36 </weight>
<weight id="1568" MUR="1.0"  MUF="1.0"  PDF="93737" > PDF=93700 MemberID=37 </weight>
<weight id="1569" MUR="1.0"  MUF="1.0"  PDF="93738" > PDF=93700 MemberID=38 </weight>
<weight id="1570" MUR="1.0"  MUF="1.0"  PDF="93739" > PDF=93700 MemberID=39 </weight>
<weight id="1571" MUR="1.0"  MUF="1.0"  PDF="93740" > PDF=93700 MemberID=40 </weight>
<weight id="1572" MUR="1.0"  MUF="1.0"  PDF="93741" > PDF=93700 MemberID=41 </weight>
<weight id="1573" MUR="1.0"  MUF="1.0"  PDF="93742" > PDF=93700 MemberID=42 </weight>
</weightgroup> # PDFSET to PDFSET
<weightgroup name="ABMP16_4_nnlo" combine="symmhessian"> # 42530: NNLO 4-flavour PDFs for the ABMP16 set
<weight id="1574" MUR="1.0"  MUF="1.0"  PDF="42530" > PDF=42530 MemberID=0 </weight>
<weight id="1575" MUR="1.0"  MUF="1.0"  PDF="42531" > PDF=42530 MemberID=1 </weight>
<weight id="1576" MUR="1.0"  MUF="1.0"  PDF="42532" > PDF=42530 MemberID=2 </weight>
<weight id="1577" MUR="1.0"  MUF="1.0"  PDF="42533" > PDF=42530 MemberID=3 </weight>
<weight id="1578" MUR="1.0"  MUF="1.0"  PDF="42534" > PDF=42530 MemberID=4 </weight>
<weight id="1579" MUR="1.0"  MUF="1.0"  PDF="42535" > PDF=42530 MemberID=5 </weight>
<weight id="1580" MUR="1.0"  MUF="1.0"  PDF="42536" > PDF=42530 MemberID=6 </weight>
<weight id="1581" MUR="1.0"  MUF="1.0"  PDF="42537" > PDF=42530 MemberID=7 </weight>
<weight id="1582" MUR="1.0"  MUF="1.0"  PDF="42538" > PDF=42530 MemberID=8 </weight>
<weight id="1583" MUR="1.0"  MUF="1.0"  PDF="42539" > PDF=42530 MemberID=9 </weight>
<weight id="1584" MUR="1.0"  MUF="1.0"  PDF="42540" > PDF=42530 MemberID=10 </weight>
<weight id="1585" MUR="1.0"  MUF="1.0"  PDF="42541" > PDF=42530 MemberID=11 </weight>
<weight id="1586" MUR="1.0"  MUF="1.0"  PDF="42542" > PDF=42530 MemberID=12 </weight>
<weight id="1587" MUR="1.0"  MUF="1.0"  PDF="42543" > PDF=42530 MemberID=13 </weight>
<weight id="1588" MUR="1.0"  MUF="1.0"  PDF="42544" > PDF=42530 MemberID=14 </weight>
<weight id="1589" MUR="1.0"  MUF="1.0"  PDF="42545" > PDF=42530 MemberID=15 </weight>
<weight id="1590" MUR="1.0"  MUF="1.0"  PDF="42546" > PDF=42530 MemberID=16 </weight>
<weight id="1591" MUR="1.0"  MUF="1.0"  PDF="42547" > PDF=42530 MemberID=17 </weight>
<weight id="1592" MUR="1.0"  MUF="1.0"  PDF="42548" > PDF=42530 MemberID=18 </weight>
<weight id="1593" MUR="1.0"  MUF="1.0"  PDF="42549" > PDF=42530 MemberID=19 </weight>
<weight id="1594" MUR="1.0"  MUF="1.0"  PDF="42550" > PDF=42530 MemberID=20 </weight>
<weight id="1595" MUR="1.0"  MUF="1.0"  PDF="42551" > PDF=42530 MemberID=21 </weight>
<weight id="1596" MUR="1.0"  MUF="1.0"  PDF="42552" > PDF=42530 MemberID=22 </weight>
<weight id="1597" MUR="1.0"  MUF="1.0"  PDF="42553" > PDF=42530 MemberID=23 </weight>
<weight id="1598" MUR="1.0"  MUF="1.0"  PDF="42554" > PDF=42530 MemberID=24 </weight>
<weight id="1599" MUR="1.0"  MUF="1.0"  PDF="42555" > PDF=42530 MemberID=25 </weight>
<weight id="1600" MUR="1.0"  MUF="1.0"  PDF="42556" > PDF=42530 MemberID=26 </weight>
<weight id="1601" MUR="1.0"  MUF="1.0"  PDF="42557" > PDF=42530 MemberID=27 </weight>
<weight id="1602" MUR="1.0"  MUF="1.0"  PDF="42558" > PDF=42530 MemberID=28 </weight>
<weight id="1603" MUR="1.0"  MUF="1.0"  PDF="42559" > PDF=42530 MemberID=29 </weight>
</weightgroup> # PDFSET to PDF
<weight id="1604" MUR="1.0"  MUF="1.0"  PDF="42930" > PDF=42930 MemberID=0 </weight>
</initrwgt>
<MGGenerationInfo>
#  Number of Events        :       100
#  Integrated weight (pb)  :       283430000000.0
</MGGenerationInfo>
</header>
<init>
2212 2212 6.500000e+03 6.500000e+03 0 0 325500 325500 -4 1
2.834300e+11 2.597800e+09 2.834300e+11 1
<generator name='MadGraph5_aMC@NLO' version='2.9.18'>please cite 1405.0301 </generator>
</init>
<event>
 9      1 +2.8343000e+11 1.40000000e+03 7.81738600e-03 7.88881200e-02
       21 -1    0    0  504  503 +0.0000000000e+00 +0.0000000000e+00 +4.9472957968e+02 4.9472957968e+02 0.0000000000e+00 0.0000e+00 -1.0000e+00
       21 -1    0    0  503  504 -0.0000000000e+00 -0.0000000000e+00 -9.9044014382e+02 9.9044014382e+02 0.0000000000e+00 0.0000e+00 -1.0000e+00
       45  2    1    2    0    0 +0.0000000000e+00 -5.6843418861e-14 -4.9571056414e+02 1.4851697235e+03 1.4000000515e+03 0.0000e+00 0.0000e+00
       25  2    3    3    0    0 -4.5698257306e+02 -3.8458020314e+02 +1.2083026388e+02 6.2206042690e+02 1.2499686922e+02 0.0000e+00 0.0000e+00
       35  2    3    3    0    0 +4.5698257306e+02 +3.8458020314e+02 -6.1654082801e+02 8.6310929660e+02 9.0000336275e+01 0.0000e+00 0.0000e+00
        5  1    5    5  501    0 +1.2245965646e+02 +6.9350843042e+01 -1.8618368150e+02 2.3342670786e+02 4.2140000000e+00 0.0000e+00 -1.0000e+00
       -5  1    5    5    0  501 +3.3452291660e+02 +3.1522936010e+02 -4.3035714652e+02 6.2968258873e+02 4.2140000000e+00 0.0000e+00 -1.0000e+00
        5  1    4    4  502    0 -2.1832263810e+02 -2.3226487104e+02 +1.1482506688e+02 3.3884258648e+02 4.2140000000e+00 0.0000e+00 -1.0000e+00
       -5  1    4    4    0  502 -2.3865993496e+02 -1.5231533210e+02 +6.0051969921e+00 2.8321784042e+02 4.2140000000e+00 0.0000e+00 -1.0000e+00
<mgrwt>
<rscale>  0 0.14000001E+04</rscale>
<asrwt>0</asrwt>
<pdfrwt beam="1">  1       21 0.76112244E-01 0.14000001E+04</pdfrwt>
<pdfrwt beam="2">  1       21 0.15237541E+00 0.14000001E+04</pdfrwt>
<totfact> 0.32404064E+02</totfact>
</mgrwt>
<rwgt>
<wgt id='1001'> +2.8343000e+11 </wgt>
<wgt id='1002'> +2.9048796e+11 </wgt>
<wgt id='1003'> +2.9048590e+11 </wgt>
<wgt id='1004'> +3.2659966e+11 </wgt>
<wgt id='1005'> +2.8343000e+11 </wgt>
<wgt id='1006'> +2.8343000e+11 </wgt>
<wgt id='1007'> +2.9048796e+11 </wgt>
<wgt id='1008'> +2.9048590e+11 </wgt>
<wgt id='1009'> +3.2659966e+11 </wgt>
<wgt id='1010'> +2.8343000e+11 </wgt>
<wgt id='1011'> +2.8343000e+11 </wgt>
<wgt id='1012'> +2.9048796e+11 </wgt>
<wgt id='1013'> +2.9048590e+11 </wgt>
<wgt id='1014'> +3.2659966e+11 </wgt>
<wgt id='1015'> +2.8343000e+11 </wgt>
<wgt id='1016'> +2.5436109e+11 </wgt>
<wgt id='1017'> +2.6032599e+11 </wgt>
<wgt id='1018'> +2.6032425e+11 </wgt>
<wgt id='1019'> +2.9048590e+11 </wgt>
<wgt id='1020'> +2.5436109e+11 </wgt>
<wgt id='1021'> +2.5436109e+11 </wgt>
<wgt id='1022'> +2.6032599e+11 </wgt>
<wgt id='1023'> +2.6032425e+11 </wgt>
<wgt id='1024'> +2.9048590e+11 </wgt>
<wgt id='1025'> +2.5436109e+11 </wgt>
<wgt id='1026'> +2.5436109e+11 </wgt>
<wgt id='1027'> +2.6032599e+11 </wgt>
<wgt id='1028'> +2.6032425e+11 </wgt>
<wgt id='1029'> +2.9048590e+11 </wgt>
<wgt id='1030'> +2.5436109e+11 </wgt>
<wgt id='1031'> +3.1811565e+11 </wgt>
<wgt id='1032'> +3.2660214e+11 </wgt>
<wgt id='1033'> +3.2659966e+11 </wgt>
<wgt id='1034'> +3.7016985e+11 </wgt>
<wgt id='1035'> +3.1811565e+11 </wgt>
<wgt id='1036'> +3.1811565e+11 </wgt>
<wgt id='1037'> +3.2660214e+11 </wgt>
<wgt id='1038'> +3.2659966e+11 </wgt>
<wgt id='1039'> +3.7016985e+11 </wgt>
<wgt id='1040'> +3.1811565e+11 </wgt>
<wgt id='1041'> +3.1811565e+11 </wgt>
<wgt id='1042'> +3.2660214e+11 </wgt>
<wgt id='1043'> +3.2659966e+11 </wgt>
<wgt id='1044'> +3.7016985e+11 </wgt>
<wgt id='1045'> +3.1811565e+11 </wgt>
<wgt id='1046'> +2.8343000e+11 </wgt>
<wgt id='1047'> +2.8343000e+11 </wgt>
<wgt id='1048'> +2.8343000e+11 </wgt>
<wgt id='1049'> +2.8260826e+11 </wgt>
<wgt id='1050'> +2.8320977e+11 </wgt>
<wgt id='1051'> +2.8338162e+11 </wgt>
<wgt id='1052'> +2.8433686e+11 </wgt>
<wgt id='1053'> +2.8177287e+11 </wgt>
<wgt id='1054'> +2.8375998e+11 </wgt>
<wgt id='1055'> +2.8225071e+11 </wgt>
<wgt id='1056'> +2.8203025e+11 </wgt>
<wgt id='1057'> +2.8385603e+11 </wgt>
<wgt id='1058'> +2.8292825e+11 </wgt>
<wgt id='1059'> +2.8524215e+11 </wgt>
<wgt id='1060'> +2.8374540e+11 </wgt>
<wgt id='1061'> +2.8402543e+11 </wgt>
<wgt id='1062'> +2.8417671e+11 </wgt>
<wgt id='1063'> +2.8416870e+11 </wgt>
<wgt id='1064'> +2.8425655e+11 </wgt>
<wgt id='1065'> +2.8470854e+11 </wgt>
<wgt id='1066'> +2.8144763e+11 </wgt>
<wgt id='1067'> +2.8087034e+11 </wgt>
<wgt id='1068'> +2.8338314e+11 </wgt>
<wgt id='1069'> +2.8259799e+11 </wgt>
<wgt id='1070'> +2.8375981e+11 </wgt>
<wgt id='1071'> +2.8383038e+11 </wgt>
<wgt id='1072'> +2.8165557e+11 </wgt>
<wgt id='1073'> +2.8375250e+11 </wgt>
<wgt id='1074'> +2.8334179e+11 </wgt>
<wgt id='1075'> +2.8449930e+11 </wgt>
<wgt id='1076'> +2.8202665e+11 </wgt>
<wgt id='1077'> +2.8232016e+11 </wgt>
<wgt id='1078'> +2.8409084e+11 </wgt>
<wgt id='1079'> +2.8208987e+11 </wgt>
<wgt id='1080'> +2.8308305e+11 </wgt>
<wgt id='1081'> +2.8294786e+11 </wgt>
<wgt id='1082'> +2.8215895e+11 </wgt>
<wgt id='1083'> +2.8383913e+11 </wgt>
<wgt id='1084'> +2.8395793e+11 </wgt>
<wgt id='1085'> +2.8277368e+11 </wgt>
<wgt id='1086'> +2.8304399e+11 </wgt>
<wgt id='1087'> +2.8311096e+11 </wgt>
<wgt id='1088'> +2.8293191e+11 </wgt>
<wgt id='1089'> +2.8270751e+11 </wgt>
<wgt id='1090'> +2.8413800e+11 </wgt>
<wgt id='1091'> +2.8352140e+11 </wgt>
<wgt id='1092'> +2.8372858e+11 </wgt>
<wgt id='1093'> +2.8332458e+11 </wgt>
<wgt id='1094'> +2.8278561e+11 </wgt>
<wgt id='1095'> +2.8360447e+11 </wgt>
<wgt id='1096'> +2.8337592e+11 </wgt>
<wgt id='1097'> +2.8301525e+11 </wgt>
<wgt id='1098'> +2.8309666e+11 </wgt>
<wgt id='1099'> +2.8315770e+11 </wgt>
<wgt id='1100'> +2.8402588e+11 </wgt>
<wgt id='1101'> +2.8343268e+11 </wgt>
<wgt id='1102'> +2.8329819e+11 </wgt>
<wgt id='1103'> +2.8302574e+11 </wgt>
<wgt id='1104'> +2.8315587e+11 </wgt>
<wgt id='1105'> +2.8354138e+11 </wgt>
<wgt id='1106'> +2.8375466e+11 </wgt>
<wgt id='1107'> +2.8339613e+11 </wgt>
<wgt id='1108'> +2.8330513e+11 </wgt>
<wgt id='1109'> +2.8321786e+11 </wgt>
<wgt id='1110'> +2.8373746e+11 </wgt>
<wgt id='1111'> +2.8356550e+11 </wgt>
<wgt id='1112'> +2.8338564e+11 </wgt>
<wgt id='1113'> +2.8374753e+11 </wgt>
<wgt id='1114'> +2.8311354e+11 </wgt>
<wgt id='1115'> +2.8317204e+11 </wgt>
<wgt id='1116'> +2.8383395e+11 </wgt>
<wgt id='1117'> +2.8336562e+11 </wgt>
<wgt id='1118'> +2.8356184e+11 </wgt>
<wgt id='1119'> +2.8319486e+11 </wgt>
<wgt id='1120'> +2.8324309e+11 </wgt>
<wgt id='1121'> +2.8349802e+11 </wgt>
<wgt id='1122'> +2.8319615e+11 </wgt>
<wgt id='1123'> +2.8337383e+11 </wgt>
<wgt id='1124'> +2.8338776e+11 </wgt>
<wgt id='1125'> +2.8359733e+11 </wgt>
<wgt id='1126'> +2.8354048e+11 </wgt>
<wgt id='1127'> +2.8331800e+11 </wgt>
<wgt id='1128'> +2.8344249e+11 </wgt>
<wgt id='1129'> +2.8335714e+11 </wgt>
<wgt id='1130'> +2.8346840e+11 </wgt>
<wgt id='1131'> +2.8376293e+11 </wgt>
<wgt id='1132'> +2.8334998e+11 </wgt>
<wgt id='1133'> +2.8351952e+11 </wgt>
<wgt id='1134'> +2.8341599e+11 </wgt>
<wgt id='1135'> +2.8346928e+11 </wgt>
<wgt id='1136'> +2.8337440e+11 </wgt>
<wgt id='1137'> +2.8326577e+11 </wgt>
<wgt id='1138'> +2.8355546e+11 </wgt>
<wgt id='1139'> +2.8348465e+11 </wgt>
<wgt id='1140'> +2.8364540e+11 </wgt>
<wgt id='1141'> +2.8326816e+11 </wgt>
<wgt id='1142'> +2.8350215e+11 </wgt>
<wgt id='1143'> +2.8359816e+11 </wgt>
<wgt id='1144'> +2.8333739e+11 </wgt>
<wgt id='1145'> +2.8356499e+11 </wgt>
<wgt id='1146'> +2.8343719e+11 </wgt>
<wgt id='1147'> +2.8348028e+11 </wgt>
<wgt id='1148'> +2.8343000e+11 </wgt>
<wgt id='1149'> +2.8343000e+11 </wgt>
<wgt id='1150'> +2.9564026e+11 </wgt>
<wgt id='1151'> +2.7902245e+11 </wgt>
<wgt id='1152'> +2.8062636e+11 </wgt>
<wgt id='1153'> +2.8663540e+11 </wgt>
<wgt id='1154'> +2.8468184e+11 </wgt>
<wgt id='1155'> +2.9079715e+11 </wgt>
<wgt id='1156'> +2.7716613e+11 </wgt>
<wgt id='1157'> +2.7500040e+11 </wgt>
<wgt id='1158'> +2.7723987e+11 </wgt>
<wgt id='1159'> +2.9897451e+11 </wgt>
<wgt id='1160'> +2.8368488e+11 </wgt>
<wgt id='1161'> +2.8601776e+11 </wgt>
<wgt id='1162'> +2.8165528e+11 </wgt>
<wgt id='1163'> +2.8627512e+11 </wgt>
<wgt id='1164'> +2.7069081e+11 </wgt>
<wgt id='1165'> +2.7787121e+11 </wgt>
<wgt id='1166'> +2.8373088e+11 </wgt>
<wgt id='1167'> +2.7858647e+11 </wgt>
<wgt id='1168'> +2.7533824e+11 </wgt>
<wgt id='1169'> +2.7569645e+11 </wgt>
<wgt id='1170'> +2.8134764e+11 </wgt>
<wgt id='1171'> +2.7294748e+11 </wgt>
<wgt id='1172'> +2.7601612e+11 </wgt>
<wgt id='1173'> +2.8623193e+11 </wgt>
<wgt id='1174'> +2.7790261e+11 </wgt>
<wgt id='1175'> +2.7699060e+11 </wgt>
<wgt id='1176'> +2.8637156e+11 </wgt>
<wgt id='1177'> +2.7828341e+11 </wgt>
<wgt id='1178'> +2.8320624e+11 </wgt>
<wgt id='1179'> +2.8142658e+11 </wgt>
<wgt id='1180'> +2.8991847e+11 </wgt>
<wgt id='1181'> +2.8309396e+11 </wgt>
<wgt id='1182'> +2.8040519e+11 </wgt>
<wgt id='1183'> +2.9235845e+11 </wgt>
<wgt id='1184'> +2.8238756e+11 </wgt>
<wgt id='1185'> +2.8546606e+11 </wgt>
<wgt id='1186'> +2.7504993e+11 </wgt>
<wgt id='1187'> +2.8458337e+11 </wgt>
<wgt id='1188'> +2.8410161e+11 </wgt>
<wgt id='1189'> +2.8334144e+11 </wgt>
<wgt id='1190'> +2.8231782e+11 </wgt>
<wgt id='1191'> +2.9239887e+11 </wgt>
<wgt id='1192'> +2.9000387e+11 </wgt>
<wgt id='1193'> +2.9286450e+11 </wgt>
<wgt id='1194'> +2.8236839e+11 </wgt>
<wgt id='1195'> +2.8379365e+11 </wgt>
<wgt id='1196'> +2.9183897e+11 </wgt>
<wgt id='1197'> +2.9215625e+11 </wgt>
<wgt id='1198'> +2.8082561e+11 </wgt>
<wgt id='1199'> +2.8630142e+11 </wgt>
<wgt id='1200'> +2.8500089e+11 </wgt>
<wgt id='1201'> +2.7991779e+11 </wgt>
<wgt id='1202'> +2.8740963e+11 </wgt>
<wgt id='1203'> +2.7956204e+11 </wgt>
<wgt id='1204'> +2.8504506e+11 </wgt>
<wgt id='1205'> +2.8396487e+11 </wgt>
<wgt id='1206'> +2.7825647e+11 </wgt>
<wgt id='1207'> +2.9175957e+11 </wgt>
<wgt id='1208'> +2.7133755e+11 </wgt>
<wgt id='1209'> +2.8126399e+11 </wgt>
<wgt id='1210'> +2.8346294e+11 </wgt>
<wgt id='1211'> +2.8550415e+11 </wgt>
<wgt id='1212'> +2.8315547e+11 </wgt>
<wgt id='1213'> +2.9090379e+11 </wgt>
<wgt id='1214'> +2.7645674e+11 </wgt>
<wgt id='1215'> +2.8809329e+11 </wgt>
<wgt id='1216'> +2.8404048e+11 </wgt>
<wgt id='1217'> +2.7667634e+11 </wgt>
<wgt id='1218'> +2.8470805e+11 </wgt>
<wgt id='1219'> +2.9381827e+11 </wgt>
<wgt id='1220'> +2.7839589e+11 </wgt>
<wgt id='1221'> +2.7595951e+11 </wgt>
<wgt id='1222'> +2.7921554e+11 </wgt>
<wgt id='1223'> +2.7288303e+11 </wgt>
<wgt id='1224'> +2.8316845e+11 </wgt>
<wgt id='1225'> +2.8832639e+11 </wgt>
<wgt id='1226'> +2.8825747e+11 </wgt>
<wgt id='1227'> +2.7705524e+11 </wgt>
<wgt id='1228'> +2.8179231e+11 </wgt>
<wgt id='1229'> +3.0196667e+11 </wgt>
<wgt id='1230'> +2.9166891e+11 </wgt>
<wgt id='1231'> +2.7787121e+11 </wgt>
<wgt id='1232'> +2.8783065e+11 </wgt>
<wgt id='1233'> +2.7699116e+11 </wgt>
<wgt id='1234'> +2.7681909e+11 </wgt>
<wgt id='1235'> +3.0077998e+11 </wgt>
<wgt id='1236'> +2.7693563e+11 </wgt>
<wgt id='1237'> +2.8908274e+11 </wgt>
<wgt id='1238'> +2.8563060e+11 </wgt>
<wgt id='1239'> +2.8852224e+11 </wgt>
<wgt id='1240'> +2.8163906e+11 </wgt>
<wgt id='1241'> +2.8362171e+11 </wgt>
<wgt id='1242'> +2.8009654e+11 </wgt>
<wgt id='1243'> +2.8705655e+11 </wgt>
<wgt id='1244'> +2.8377120e+11 </wgt>
<wgt id='1245'> +2.8031697e+11 </wgt>
<wgt id='1246'> +3.0564114e+11 </wgt>
<wgt id='1247'> +2.8223558e+11 </wgt>
<wgt id='1248'> +2.7394339e+11 </wgt>
<wgt id='1249'> +2.7641722e+11 </wgt>
<wgt id='1250'> +2.9257945e+11 </wgt>
<wgt id='1251'> +3.0016672e+11 </wgt>
<wgt id='1252'> +2.8809283e+11 </wgt>
<wgt id='1253'> +2.8773360e+11 </wgt>
<wgt id='1254'> +2.8910570e+11 </wgt>
<wgt id='1255'> +3.0030632e+11 </wgt>
<wgt id='1256'> +2.9967350e+11 </wgt>
<wgt id='1257'> +2.9313579e+11 </wgt>
<wgt id='1258'> +2.9737508e+11 </wgt>
<wgt id='1259'> +2.9802528e+11 </wgt>
<wgt id='1260'> +3.2620476e+11 </wgt>
<wgt id='1261'> +3.1430314e+11 </wgt>
<wgt id='1262'> +2.9165903e+11 </wgt>
<wgt id='1263'> +2.9816203e+11 </wgt>
<wgt id='1264'> +3.0068734e+11 </wgt>
<wgt id='1265'> +2.9738914e+11 </wgt>
<wgt id='1266'> +2.9871771e+11 </wgt>
<wgt id='1267'> +3.2766994e+11 </wgt>
<wgt id='1268'> +2.9279642e+11 </wgt>
<wgt id='1269'> +2.8757346e+11 </wgt>
<wgt id='1270'> +2.9703669e+11 </wgt>
<wgt id='1271'> +2.7485117e+11 </wgt>
<wgt id='1272'> +2.9361290e+11 </wgt>
<wgt id='1273'> +2.9167903e+11 </wgt>
<wgt id='1274'> +2.8727740e+11 </wgt>
<wgt id='1275'> +2.9730225e+11 </wgt>
<wgt id='1276'> +2.9854265e+11 </wgt>
<wgt id='1277'> +2.9369172e+11 </wgt>
<wgt id='1278'> +2.9298162e+11 </wgt>
<wgt id='1279'> +2.8101055e+11 </wgt>
<wgt id='1280'> +2.9027791e+11 </wgt>
<wgt id='1281'> +2.8579602e+11 </wgt>
<wgt id='1282'> +2.9659481e+11 </wgt>
<wgt id='1283'> +3.0122245e+11 </wgt>
<wgt id='1284'> +3.1306780e+11 </wgt>
<wgt id='1285'> +3.0867556e+11 </wgt>
<wgt id='1286'> +3.2946148e+11 </wgt>
<wgt id='1287'> +3.0464030e+11 </wgt>
<wgt id='1288'> +3.2728921e+11 </wgt>
<wgt id='1289'> +3.1373200e+11 </wgt>
<wgt id='1290'> +3.1221413e+11 </wgt>
<wgt id='1291'> +2.7848979e+11 </wgt>
<wgt id='1292'> +2.9989623e+11 </wgt>
<wgt id='1293'> +3.0201579e+11 </wgt>
<wgt id='1294'> +3.1751841e+11 </wgt>
<wgt id='1295'> +3.0438768e+11 </wgt>
<wgt id='1296'> +3.2034238e+11 </wgt>
<wgt id='1297'> +2.9441266e+11 </wgt>
<wgt id='1298'> +2.8823046e+11 </wgt>
<wgt id='1299'> +3.0111797e+11 </wgt>
<wgt id='1300'> +2.8823880e+11 </wgt>
<wgt id='1301'> +2.8017420e+11 </wgt>
<wgt id='1302'> +2.8066654e+11 </wgt>
<wgt id='1303'> +3.0047182e+11 </wgt>
<wgt id='1304'> +3.1337729e+11 </wgt>
<wgt id='1305'> +2.9896582e+11 </wgt>
<wgt id='1306'> +3.0605922e+11 </wgt>
<wgt id='1307'> +2.9859874e+11 </wgt>
<wgt id='1308'> +3.2762865e+11 </wgt>
<wgt id='1309'> +2.9798584e+11 </wgt>
<wgt id='1310'> +3.0299541e+11 </wgt>
<wgt id='1311'> +3.0493904e+11 </wgt>
<wgt id='1312'> +3.0364268e+11 </wgt>
<wgt id='1313'> +2.9957180e+11 </wgt>
<wgt id='1314'> +3.0116229e+11 </wgt>
<wgt id='1315'> +2.8656337e+11 </wgt>
<wgt id='1316'> +2.9965779e+11 </wgt>
<wgt id='1317'> +3.0475702e+11 </wgt>
<wgt id='1318'> +2.8978862e+11 </wgt>
<wgt id='1319'> +3.0317774e+11 </wgt>
<wgt id='1320'> +3.1246251e+11 </wgt>
<wgt id='1321'> +2.9634308e+11 </wgt>
<wgt id='1322'> +3.0060903e+11 </wgt>
<wgt id='1323'> +2.9617350e+11 </wgt>
<wgt id='1324'> +3.0353635e+11 </wgt>
<wgt id='1325'> +3.1188799e+11 </wgt>
<wgt id='1326'> +3.0598725e+11 </wgt>
<wgt id='1327'> +3.0121378e+11 </wgt>
<wgt id='1328'> +3.0009386e+11 </wgt>
<wgt id='1329'> +2.9839157e+11 </wgt>
<wgt id='1330'> +2.8918793e+11 </wgt>
<wgt id='1331'> +3.2090476e+11 </wgt>
<wgt id='1332'> +2.9009677e+11 </wgt>
<wgt id='1333'> +3.0181173e+11 </wgt>
<wgt id='1334'> +3.1509634e+11 </wgt>
<wgt id='1335'> +2.9338467e+11 </wgt>
<wgt id='1336'> +3.0751051e+11 </wgt>
<wgt id='1337'> +3.0907080e+11 </wgt>
<wgt id='1338'> +2.8955235e+11 </wgt>
<wgt id='1339'> +3.1906337e+11 </wgt>
<wgt id='1340'> +3.0360971e+11 </wgt>
<wgt id='1341'> +3.1082501e+11 </wgt>
<wgt id='1342'> +3.1135937e+11 </wgt>
<wgt id='1343'> +3.1008901e+11 </wgt>
<wgt id='1344'> +3.0920306e+11 </wgt>
<wgt id='1345'> +2.7482630e+11 </wgt>
<wgt id='1346'> +3.0176665e+11 </wgt>
<wgt id='1347'> +2.8906710e+11 </wgt>
<wgt id='1348'> +2.8939346e+11 </wgt>
<wgt id='1349'> +2.8868913e+11 </wgt>
<wgt id='1350'> +3.0348225e+11 </wgt>
<wgt id='1351'> +2.9518374e+11 </wgt>
<wgt id='1352'> +3.0214183e+11 </wgt>
<wgt id='1353'> +2.9878982e+11 </wgt>
<wgt id='1354'> +3.0820152e+11 </wgt>
<wgt id='1355'> +2.7574276e+11 </wgt>
<wgt id='1356'> +2.7844904e+11 </wgt>
<wgt id='1357'> +2.7625665e+11 </wgt>
<wgt id='1358'> +2.7352332e+11 </wgt>
<wgt id='1359'> +2.7607330e+11 </wgt>
<wgt id='1360'> +2.6979494e+11 </wgt>
<wgt id='1361'> +2.7529270e+11 </wgt>
<wgt id='1362'> +2.7980480e+11 </wgt>
<wgt id='1363'> +2.7096823e+11 </wgt>
<wgt id='1364'> +2.8113722e+11 </wgt>
<wgt id='1365'> +2.7349401e+11 </wgt>
<wgt id='1366'> +2.7423534e+11 </wgt>
<wgt id='1367'> +2.7634989e+11 </wgt>
<wgt id='1368'> +2.7594721e+11 </wgt>
<wgt id='1369'> +2.7912176e+11 </wgt>
<wgt id='1370'> +2.7375294e+11 </wgt>
<wgt id='1371'> +2.7483987e+11 </wgt>
<wgt id='1372'> +2.7930166e+11 </wgt>
<wgt id='1373'> +2.7910813e+11 </wgt>
<wgt id='1374'> +2.6778721e+11 </wgt>
<wgt id='1375'> +2.7556265e+11 </wgt>
<wgt id='1376'> +2.7587802e+11 </wgt>
<wgt id='1377'> +2.7613345e+11 </wgt>
<wgt id='1378'> +2.7300023e+11 </wgt>
<wgt id='1379'> +2.7422197e+11 </wgt>
<wgt id='1380'> +2.7369795e+11 </wgt>
<wgt id='1381'> +2.8083644e+11 </wgt>
<wgt id='1382'> +2.7512731e+11 </wgt>
<wgt id='1383'> +2.7473283e+11 </wgt>
<wgt id='1384'> +2.7335896e+11 </wgt>
<wgt id='1385'> +2.7315021e+11 </wgt>
<wgt id='1386'> +2.7635859e+11 </wgt>
<wgt id='1387'> +2.7439446e+11 </wgt>
<wgt id='1388'> +2.7152955e+11 </wgt>
<wgt id='1389'> +2.7450576e+11 </wgt>
<wgt id='1390'> +2.7599355e+11 </wgt>
<wgt id='1391'> +2.7361237e+11 </wgt>
<wgt id='1392'> +2.7335685e+11 </wgt>
<wgt id='1393'> +2.7476882e+11 </wgt>
<wgt id='1394'> +2.7379442e+11 </wgt>
<wgt id='1395'> +2.7123782e+11 </wgt>
<wgt id='1396'> +2.7651041e+11 </wgt>
<wgt id='1397'> +2.7650143e+11 </wgt>
<wgt id='1398'> +2.7698575e+11 </wgt>
<wgt id='1399'> +2.7222694e+11 </wgt>
<wgt id='1400'> +2.7210105e+11 </wgt>
<wgt id='1401'> +2.7523410e+11 </wgt>
<wgt id='1402'> +2.7874699e+11 </wgt>
<wgt id='1403'> +2.8042403e+11 </wgt>
<wgt id='1404'> +2.7544401e+11 </wgt>
<wgt id='1405'> +2.8193551e+11 </wgt>
<wgt id='1406'> +2.7641981e+11 </wgt>
<wgt id='1407'> +2.7618585e+11 </wgt>
<wgt id='1408'> +2.7976403e+11 </wgt>
<wgt id='1409'> +2.7287069e+11 </wgt>
<wgt id='1410'> +2.7131819e+11 </wgt>
<wgt id='1411'> +2.7545243e+11 </wgt>
<wgt id='1412'> +2.7412337e+11 </wgt>
<wgt id='1413'> +2.7340346e+11 </wgt>
<wgt id='1414'> +2.7792114e+11 </wgt>
<wgt id='1415'> +2.8016553e+11 </wgt>
<wgt id='1416'> +2.7840918e+11 </wgt>
<wgt id='1417'> +2.7053910e+11 </wgt>
<wgt id='1418'> +2.7663143e+11 </wgt>
<wgt id='1419'> +2.7947685e+11 </wgt>
<wgt id='1420'> +2.7441130e+11 </wgt>
<wgt id='1421'> +2.8183097e+11 </wgt>
<wgt id='1422'> +2.6865959e+11 </wgt>
<wgt id='1423'> +2.8077095e+11 </wgt>
<wgt id='1424'> +2.7691126e+11 </wgt>
<wgt id='1425'> +2.7623239e+11 </wgt>
<wgt id='1426'> +2.7852153e+11 </wgt>
<wgt id='1427'> +2.7545975e+11 </wgt>
<wgt id='1428'> +2.7532333e+11 </wgt>
<wgt id='1429'> +2.7346253e+11 </wgt>
<wgt id='1430'> +2.7145861e+11 </wgt>
<wgt id='1431'> +2.7074769e+11 </wgt>
<wgt id='1432'> +2.7636907e+11 </wgt>
<wgt id='1433'> +2.7511291e+11 </wgt>
<wgt id='1434'> +2.8297664e+11 </wgt>
<wgt id='1435'> +2.7473826e+11 </wgt>
<wgt id='1436'> +2.7957107e+11 </wgt>
<wgt id='1437'> +2.7713962e+11 </wgt>
<wgt id='1438'> +2.7441654e+11 </wgt>
<wgt id='1439'> +2.7800292e+11 </wgt>
<wgt id='1440'> +2.7934733e+11 </wgt>
<wgt id='1441'> +2.7440644e+11 </wgt>
<wgt id='1442'> +2.8201292e+11 </wgt>
<wgt id='1443'> +2.7362112e+11 </wgt>
<wgt id='1444'> +2.7592412e+11 </wgt>
<wgt id='1445'> +2.7773180e+11 </wgt>
<wgt id='1446'> +2.7954010e+11 </wgt>
<wgt id='1447'> +2.7256685e+11 </wgt>
<wgt id='1448'> +2.7814595e+11 </wgt>
<wgt id='1449'> +2.7789823e+11 </wgt>
<wgt id='1450'> +2.7451201e+11 </wgt>
<wgt id='1451'> +2.7712780e+11 </wgt>
<wgt id='1452'> +2.7834234e+11 </wgt>
<wgt id='1453'> +2.7888987e+11 </wgt>
<wgt id='1454'> +2.6854142e+11 </wgt>
<wgt id='1455'> +2.7478595e+11 </wgt>
<wgt id='1456'> +2.7486264e+11 </wgt>
<wgt id='1457'> +2.7463118e+11 </wgt>
<wgt id='1458'> +2.7882512e+11 </wgt>
<wgt id='1459'> +3.0699780e+11 </wgt>
<wgt id='1460'> +3.0221899e+11 </wgt>
<wgt id='1461'> +3.5275467e+11 </wgt>
<wgt id='1462'> +2.9883894e+11 </wgt>
<wgt id='1463'> +2.9907894e+11 </wgt>
<wgt id='1464'> +2.9853111e+11 </wgt>
<wgt id='1465'> +2.9890193e+11 </wgt>
<wgt id='1466'> +2.9878137e+11 </wgt>
<wgt id='1467'> +2.9898649e+11 </wgt>
<wgt id='1468'> +2.9859682e+11 </wgt>
<wgt id='1469'> +2.9839613e+11 </wgt>
<wgt id='1470'> +2.9919856e+11 </wgt>
<wgt id='1471'> +2.9930640e+11 </wgt>
<wgt id='1472'> +2.9835745e+11 </wgt>
<wgt id='1473'> +2.9999915e+11 </wgt>
<wgt id='1474'> +2.9772457e+11 </wgt>
<wgt id='1475'> +2.9994322e+11 </wgt>
<wgt id='1476'> +2.9805603e+11 </wgt>
<wgt id='1477'> +2.9827566e+11 </wgt>
<wgt id='1478'> +3.0015475e+11 </wgt>
<wgt id='1479'> +2.9833551e+11 </wgt>
<wgt id='1480'> +2.9919166e+11 </wgt>
<wgt id='1481'> +2.9839116e+11 </wgt>
<wgt id='1482'> +2.9944320e+11 </wgt>
<wgt id='1483'> +2.9892840e+11 </wgt>
<wgt id='1484'> +2.9871246e+11 </wgt>
<wgt id='1485'> +2.9904407e+11 </wgt>
<wgt id='1486'> +2.9834493e+11 </wgt>
<wgt id='1487'> +2.9909973e+11 </wgt>
<wgt id='1488'> +2.9851202e+11 </wgt>
<wgt id='1489'> +2.9848256e+11 </wgt>
<wgt id='1490'> +2.9980513e+11 </wgt>
<wgt id='1491'> +3.0376053e+11 </wgt>
<wgt id='1492'> +2.9609340e+11 </wgt>
<wgt id='1493'> +2.9531046e+11 </wgt>
<wgt id='1494'> +3.0990044e+11 </wgt>
<wgt id='1495'> +2.9816111e+11 </wgt>
<wgt id='1496'> +2.9956618e+11 </wgt>
<wgt id='1497'> +2.9903763e+11 </wgt>
<wgt id='1498'> +2.9856735e+11 </wgt>
<wgt id='1499'> +3.0074737e+11 </wgt>
<wgt id='1500'> +2.9779536e+11 </wgt>
<wgt id='1501'> +2.9928270e+11 </wgt>
<wgt id='1502'> +2.9766342e+11 </wgt>
<wgt id='1503'> +2.9550541e+11 </wgt>
<wgt id='1504'> +3.0242179e+11 </wgt>
<wgt id='1505'> +2.9978663e+11 </wgt>
<wgt id='1506'> +2.9792198e+11 </wgt>
<wgt id='1507'> +3.0056772e+11 </wgt>
<wgt id='1508'> +2.9713957e+11 </wgt>
<wgt id='1509'> +2.9945546e+11 </wgt>
<wgt id='1510'> +2.9619021e+11 </wgt>
<wgt id='1511'> +2.9997998e+11 </wgt>
<wgt id='1512'> +2.9850134e+11 </wgt>
<wgt id='1513'> +2.9874712e+11 </wgt>
<wgt id='1514'> +2.9893467e+11 </wgt>
<wgt id='1515'> +3.0150892e+11 </wgt>
<wgt id='1516'> +2.9911980e+11 </wgt>
<wgt id='1517'> +2.9843834e+11 </wgt>
<wgt id='1518'> +2.9922200e+11 </wgt>
<wgt id='1519'> +2.9713624e+11 </wgt>
<wgt id='1520'> +3.0004936e+11 </wgt>
<wgt id='1521'> +2.9797744e+11 </wgt>
<wgt id='1522'> +2.9934655e+11 </wgt>
<wgt id='1523'> +3.0014440e+11 </wgt>
<wgt id='1524'> +3.0026533e+11 </wgt>
<wgt id='1525'> +2.9995891e+11 </wgt>
<wgt id='1526'> +2.9976756e+11 </wgt>
<wgt id='1527'> +2.9883894e+11 </wgt>
<wgt id='1528'> +2.9847674e+11 </wgt>
<wgt id='1529'> +2.9872287e+11 </wgt>
<wgt id='1530'> +2.9497737e+11 </wgt>
<wgt id='1531'> +2.9689044e+11 </wgt>
<wgt id='1532'> +2.9463086e+11 </wgt>
<wgt id='1533'> +2.9215603e+11 </wgt>
<wgt id='1534'> +2.9530710e+11 </wgt>
<wgt id='1535'> +2.9931414e+11 </wgt>
<wgt id='1536'> +2.9437134e+11 </wgt>
<wgt id='1537'> +2.9692654e+11 </wgt>
<wgt id='1538'> +2.9370769e+11 </wgt>
<wgt id='1539'> +3.0272192e+11 </wgt>
<wgt id='1540'> +2.9639260e+11 </wgt>
<wgt id='1541'> +2.9758623e+11 </wgt>
<wgt id='1542'> +2.9688916e+11 </wgt>
<wgt id='1543'> +2.9817381e+11 </wgt>
<wgt id='1544'> +2.9499310e+11 </wgt>
<wgt id='1545'> +2.9489124e+11 </wgt>
<wgt id='1546'> +2.9294643e+11 </wgt>
<wgt id='1547'> +2.9920720e+11 </wgt>
<wgt id='1548'> +2.9504092e+11 </wgt>
<wgt id='1549'> +2.9339555e+11 </wgt>
<wgt id='1550'> +2.9788174e+11 </wgt>
<wgt id='1551'> +2.9747361e+11 </wgt>
<wgt id='1552'> +2.9641259e+11 </wgt>
<wgt id='1553'> +2.9923097e+11 </wgt>
<wgt id='1554'> +2.9679285e+11 </wgt>
<wgt id='1555'> +2.9758160e+11 </wgt>
<wgt id='1556'> +2.9927238e+11 </wgt>
<wgt id='1557'> +2.9578190e+11 </wgt>
<wgt id='1558'> +2.9699602e+11 </wgt>
<wgt id='1559'> +2.9468263e+11 </wgt>
<wgt id='1560'> +2.9562504e+11 </wgt>
<wgt id='1561'> +2.9354012e+11 </wgt>
<wgt id='1562'> +2.9553260e+11 </wgt>
<wgt id='1563'> +2.9694451e+11 </wgt>
<wgt id='1564'> +2.9645222e+11 </wgt>
<wgt id='1565'> +2.9899164e+11 </wgt>
<wgt id='1566'> +2.9683917e+11 </wgt>
<wgt id='1567'> +3.0017358e+11 </wgt>
<wgt id='1568'> +2.9681306e+11 </wgt>
<wgt id='1569'> +2.9650638e+11 </wgt>
<wgt id='1570'> +3.0414290e+11 </wgt>
<wgt id='1571'> +2.9676545e+11 </wgt>
<wgt id='1572'> +2.9893037e+11 </wgt>
<wgt id='1573'> +3.0025651e+11 </wgt>
<wgt id='1574'> +2.6408832e+11 </wgt>
<wgt id='1575'> +2.6415968e+11 </wgt>
<wgt id='1576'> +2.6402040e+11 </wgt>
<wgt id='1577'> +2.6410659e+11 </wgt>
<wgt id='1578'> +2.6469566e+11 </wgt>
<wgt id='1579'> +2.6493660e+11 </wgt>
<wgt id='1580'> +2.6470821e+11 </wgt>
<wgt id='1581'> +2.6349513e+11 </wgt>
<wgt id='1582'> +2.6319758e+11 </wgt>
<wgt id='1583'> +2.6363699e+11 </wgt>
<wgt id='1584'> +2.6466666e+11 </wgt>
<wgt id='1585'> +2.6428990e+11 </wgt>
<wgt id='1586'> +2.6311639e+11 </wgt>
<wgt id='1587'> +2.6334790e+11 </wgt>
<wgt id='1588'> +2.6285875e+11 </wgt>
<wgt id='1589'> +2.6381909e+11 </wgt>
<wgt id='1590'> +2.6391232e+11 </wgt>
<wgt id='1591'> +2.6415945e+11 </wgt>
<wgt id='1592'> +2.6306733e+11 </wgt>
<wgt id='1593'> +2.6316628e+11 </wgt>
<wgt id='1594'> +2.6496134e+11 </wgt>
<wgt id='1595'> +2.6177735e+11 </wgt>
<wgt id='1596'> +2.6783652e+11 </wgt>
<wgt id='1597'> +2.6584779e+11 </wgt>
<wgt id='1598'> +2.6604735e+11 </wgt>
<wgt id='1599'> +2.6127696e+11 </wgt>
<wgt id='1600'> +2.6863001e+11 </wgt>
<wgt id='1601'> +2.6623071e+11 </wgt>
<wgt id='1602'> +2.6413760e+11 </wgt>
<wgt id='1603'> +2.7543347e+11 </wgt>
<wgt id='1604'> +2.6411518e+11 </wgt>
</rwgt>
</event>
<event>
 9      1 +2.8343000e+11 1.40000100e+03 7.81738600e-03 7.88881100e-02
       21 -1    0    0  504  503 +0.0000000000e+00 +0.0000000000e+00 +4.9165978726e+02 4.9165978726e+02 0.0000000000e+00 0.0000e+00 1.0000e+00
       21 -1    0    0  503  504 -0.0000000000e+00 -0.0000000000e+00 -9.9662568701e+02 9.9662568701e+02 0.0000000000e+00 0.0000e+00 1.0000e+00
       45  2    1    2    0    0 +0.0000000000e+00 +0.0000000000e+00 -5.0496589975e+02 1.4882854743e+03 1.4000011046e+03 0.0000e+00 0.0000e+00
       25  2    3    3    0    0 -5.5582603209e+02 +2.1674363105e+02 -6.2510550878e+02 8.7309946749e+02 1.2500161387e+02 0.0000e+00 0.0000e+00
       35  2    3    3    0    0 +5.5582603209e+02 -2.1674363105e+02 +1.2013960903e+02 6.1518600677e+02 8.9999542881e+01 0.0000e+00 0.0000e+00
        5  1    5    5  501    0 +1.8464458762e+02 -3.1507184833e+01 +2.0083925709e+01 1.8843420152e+02 4.2140000000e+00 0.0000e+00 -1.0000e+00
       -5  1    5    5    0  501 +3.7118144447e+02 -1.8523644622e+02 +1.0005568332e+02 4.2675180525e+02 4.2140000000e+00 0.0000e+00 -1.0000e+00
        5  1    4    4  502    0 -2.7951219710e+02 +1.7289682289e+02 -3.6312188169e+02 4.8979142341e+02 4.2140000000e+00 0.0000e+00 -1.0000e+00
       -5  1    4    4    0  502 -2.7631383499e+02 +4.3846808164e+01 -2.6198362710e+02 3.8330804408e+02 4.2140000000e+00 0.0000e+00 -1.0000e+00
<mgrwt>
<rscale>  0 0.14000011E+04</rscale>
<asrwt>0</asrwt>
<pdfrwt beam="1">  1       21 0.75639968E-01 0.14000011E+04</pdfrwt>
<pdfrwt beam="2">  1       21 0.15332703E+00 0.14000011E+04</pdfrwt>
<totfact> 0.32277441E+02</totfact>
</mgrwt>
<rwgt>
<wgt id='1001'> +2.8343000e+11 </wgt>
<wgt id='1002'> +2.9016523e+11 </wgt>
<wgt id='1003'> +2.9016401e+11 </wgt>
<wgt id='1004'> +3.2623066e+11 </wgt>
<wgt id='1005'> +2.8343000e+11 </wgt>
<wgt id='1006'> +2.8343000e+11 </wgt>
<wgt id='1007'> +2.9016523e+11 </wgt>
<wgt id='1008'> +2.9016401e+11 </wgt>
<wgt id='1009'> +3.2623066e+11 </wgt>
<wgt id='1010'> +2.8343000e+11 </wgt>
<wgt id='1011'> +2.8343000e+11 </wgt>
<wgt id='1012'> +2.9016523e+11 </wgt>
<wgt id='1013'> +2.9016401e+11 </wgt>
<wgt id='1014'> +3.2623066e+11 </wgt>
<wgt id='1015'> +2.8343000e+11 </wgt>
<wgt id='1016'> +2.5434787e+11 </wgt>
<wgt id='1017'> +2.6004019e+11 </wgt>
<wgt id='1018'> +2.6003916e+11 </wgt>
<wgt id='1019'> +2.9016401e+11 </wgt>
<wgt id='1020'> +2.5434787e+11 </wgt>
<wgt id='1021'> +2.5434787e+11 </wgt>
<wgt id='1022'> +2.6004019e+11 </wgt>
<wgt id='1023'> +2.6003916e+11 </wgt>
<wgt id='1024'> +2.9016401e+11 </wgt>
<wgt id='1025'> +2.5434787e+11 </wgt>
<wgt id='1026'> +2.5434787e+11 </wgt>
<wgt id='1027'> +2.6004019e+11 </wgt>
<wgt id='1028'> +2.6003916e+11 </wgt>
<wgt id='1029'> +2.9016401e+11 </wgt>
<wgt id='1030'> +2.5434787e+11 </wgt>
<wgt id='1031'> +3.1813353e+11 </wgt>
<wgt id='1032'> +3.2623213e+11 </wgt>
<wgt id='1033'> +3.2623066e+11 </wgt>
<wgt id='1034'> +3.6974178e+11 </wgt>
<wgt id='1035'> +3.1813353e+11 </wgt>
<wgt id='1036'> +3.1813353e+11 </wgt>
<wgt id='1037'> +3.2623213e+11 </wgt>
<wgt id='1038'> +3.2623066e+11 </wgt>
<wgt id='1039'> +3.6974178e+11 </wgt>
<wgt id='1040'> +3.1813353e+11 </wgt>
<wgt id='1041'> +3.1813353e+11 </wgt>
<wgt id='1042'> +3.2623213e+11 </wgt>
<wgt id='1043'> +3.2623066e+11 </wgt>
<wgt id='1044'> +3.6974178e+11 </wgt>
<wgt id='1045'> +3.1813353e+11 </wgt>
<wgt id='1046'> +2.8343000e+11 </wgt>
<wgt id='1047'> +2.8343000e+11 </wgt>
<wgt id='1048'> +2.8343000e+11 </wgt>
<wgt id='1049'> +2.8261777e+11 </wgt>
<wgt id='1050'> +2.8321318e+11 </wgt>
<wgt id='1051'> +2.8337393e+11 </wgt>
<wgt id='1052'> +2.8433900e+11 </wgt>
<wgt id='1053'> +2.8176829e+11 </wgt>
<wgt id='1054'> +2.8375669e+11 </wgt>
<wgt id='1055'> +2.8224978e+11 </wgt>
<wgt id='1056'> +2.8203472e+11 </wgt>
<wgt id='1057'> +2.8384321e+11 </wgt>
<wgt id='1058'> +2.8292383e+11 </wgt>
<wgt id='1059'> +2.8523851e+11 </wgt>
<wgt id='1060'> +2.8374853e+11 </wgt>
<wgt id='1061'> +2.8402115e+11 </wgt>
<wgt id='1062'> +2.8418139e+11 </wgt>
<wgt id='1063'> +2.8418393e+11 </wgt>
<wgt id='1064'> +2.8424543e+11 </wgt>
<wgt id='1065'> +2.8470544e+11 </wgt>
<wgt id='1066'> +2.8143656e+11 </wgt>
<wgt id='1067'> +2.8090368e+11 </wgt>
<wgt id='1068'> +2.8337476e+11 </wgt>
<wgt id='1069'> +2.8259515e+11 </wgt>
<wgt id='1070'> +2.8376902e+11 </wgt>
<wgt id='1071'> +2.8380000e+11 </wgt>
<wgt id='1072'> +2.8167831e+11 </wgt>
<wgt id='1073'> +2.8373652e+11 </wgt>
<wgt id='1074'> +2.8334158e+11 </wgt>
<wgt id='1075'> +2.8449906e+11 </wgt>
<wgt id='1076'> +2.8199788e+11 </wgt>
<wgt id='1077'> +2.8230425e+11 </wgt>
<wgt id='1078'> +2.8409050e+11 </wgt>
<wgt id='1079'> +2.8209645e+11 </wgt>
<wgt id='1080'> +2.8309082e+11 </wgt>
<wgt id='1081'> +2.8294686e+11 </wgt>
<wgt id='1082'> +2.8216238e+11 </wgt>
<wgt id='1083'> +2.8383719e+11 </wgt>
<wgt id='1084'> +2.8395446e+11 </wgt>
<wgt id='1085'> +2.8277091e+11 </wgt>
<wgt id='1086'> +2.8304961e+11 </wgt>
<wgt id='1087'> +2.8311249e+11 </wgt>
<wgt id='1088'> +2.8293153e+11 </wgt>
<wgt id='1089'> +2.8270314e+11 </wgt>
<wgt id='1090'> +2.8413695e+11 </wgt>
<wgt id='1091'> +2.8352111e+11 </wgt>
<wgt id='1092'> +2.8373226e+11 </wgt>
<wgt id='1093'> +2.8332657e+11 </wgt>
<wgt id='1094'> +2.8278194e+11 </wgt>
<wgt id='1095'> +2.8360630e+11 </wgt>
<wgt id='1096'> +2.8337872e+11 </wgt>
<wgt id='1097'> +2.8301442e+11 </wgt>
<wgt id='1098'> +2.8309672e+11 </wgt>
<wgt id='1099'> +2.8315778e+11 </wgt>
<wgt id='1100'> +2.8402722e+11 </wgt>
<wgt id='1101'> +2.8343486e+11 </wgt>
<wgt id='1102'> +2.8329938e+11 </wgt>
<wgt id='1103'> +2.8302087e+11 </wgt>
<wgt id='1104'> +2.8315768e+11 </wgt>
<wgt id='1105'> +2.8354080e+11 </wgt>
<wgt id='1106'> +2.8375539e+11 </wgt>
<wgt id='1107'> +2.8340043e+11 </wgt>
<wgt id='1108'> +2.8330305e+11 </wgt>
<wgt id='1109'> +2.8321797e+11 </wgt>
<wgt id='1110'> +2.8373678e+11 </wgt>
<wgt id='1111'> +2.8356604e+11 </wgt>
<wgt id='1112'> +2.8338541e+11 </wgt>
<wgt id='1113'> +2.8374812e+11 </wgt>
<wgt id='1114'> +2.8311408e+11 </wgt>
<wgt id='1115'> +2.8316979e+11 </wgt>
<wgt id='1116'> +2.8383767e+11 </wgt>
<wgt id='1117'> +2.8336522e+11 </wgt>
<wgt id='1118'> +2.8356475e+11 </wgt>
<wgt id='1119'> +2.8319241e+11 </wgt>
<wgt id='1120'> +2.8324125e+11 </wgt>
<wgt id='1121'> +2.8349925e+11 </wgt>
<wgt id='1122'> +2.8319484e+11 </wgt>
<wgt id='1123'> +2.8337357e+11 </wgt>
<wgt id='1124'> +2.8338851e+11 </wgt>
<wgt id='1125'> +2.8359792e+11 </wgt>
<wgt id='1126'> +2.8354056e+11 </wgt>
<wgt id='1127'> +2.8331705e+11 </wgt>
<wgt id='1128'> +2.8344196e+11 </wgt>
<wgt id='1129'> +2.8335601e+11 </wgt>
<wgt id='1130'> +2.8346837e+11 </wgt>
<wgt id='1131'> +2.8376571e+11 </wgt>
<wgt id='1132'> +2.8334988e+11 </wgt>
<wgt id='1133'> +2.8352071e+11 </wgt>
<wgt id='1134'> +2.8341667e+11 </wgt>
<wgt id='1135'> +2.8346897e+11 </wgt>
<wgt id='1136'> +2.8337368e+11 </wgt>
<wgt id='1137'> +2.8326512e+11 </wgt>
<wgt id='1138'> +2.8355573e+11 </wgt>
<wgt id='1139'> +2.8348507e+11 </wgt>
<wgt id='1140'> +2.8364656e+11 </wgt>
<wgt id='1141'> +2.8326705e+11 </wgt>
<wgt id='1142'> +2.8350160e+11 </wgt>
<wgt id='1143'> +2.8359824e+11 </wgt>
<wgt id='1144'> +2.8333685e+11 </wgt>
<wgt id='1145'> +2.8356520e+11 </wgt>
<wgt id='1146'> +2.8343822e+11 </wgt>
<wgt id='1147'> +2.8348044e+11 </wgt>
<wgt id='1148'> +2.8343000e+11 </wgt>
<wgt id='1149'> +2.8343000e+11 </wgt>
<wgt id='1150'> +2.9573737e+11 </wgt>
<wgt id='1151'> +2.7895274e+11 </wgt>
<wgt id='1152'> +2.8047806e+11 </wgt>
<wgt id='1153'> +2.8660510e+11 </wgt>
<wgt id='1154'> +2.8459112e+11 </wgt>
<wgt id='1155'> +2.9088147e+11 </wgt>
<wgt id='1156'> +2.7718362e+11 </wgt>
<wgt id='1157'> +2.7496512e+11 </wgt>
<wgt id='1158'> +2.7722778e+11 </wgt>
<wgt id='1159'> +2.9905858e+11 </wgt>
<wgt id='1160'> +2.8374740e+11 </wgt>
<wgt id='1161'> +2.8606562e+11 </wgt>
<wgt id='1162'> +2.8179447e+11 </wgt>
<wgt id='1163'> +2.8626905e+11 </wgt>
<wgt id='1164'> +2.7079461e+11 </wgt>
<wgt id='1165'> +2.7784629e+11 </wgt>
<wgt id='1166'> +2.8369955e+11 </wgt>
<wgt id='1167'> +2.7855351e+11 </wgt>
<wgt id='1168'> +2.7530114e+11 </wgt>
<wgt id='1169'> +2.7569555e+11 </wgt>
<wgt id='1170'> +2.8148661e+11 </wgt>
<wgt id='1171'> +2.7293911e+11 </wgt>
<wgt id='1172'> +2.7596745e+11 </wgt>
<wgt id='1173'> +2.8619052e+11 </wgt>
<wgt id='1174'> +2.7785446e+11 </wgt>
<wgt id='1175'> +2.7704322e+11 </wgt>
<wgt id='1176'> +2.8637747e+11 </wgt>
<wgt id='1177'> +2.7826194e+11 </wgt>
<wgt id='1178'> +2.8322316e+11 </wgt>
<wgt id='1179'> +2.8148201e+11 </wgt>
<wgt id='1180'> +2.9002414e+11 </wgt>
<wgt id='1181'> +2.8329540e+11 </wgt>
<wgt id='1182'> +2.8037815e+11 </wgt>
<wgt id='1183'> +2.9225665e+11 </wgt>
<wgt id='1184'> +2.8247981e+11 </wgt>
<wgt id='1185'> +2.8556544e+11 </wgt>
<wgt id='1186'> +2.7514323e+11 </wgt>
<wgt id='1187'> +2.8455771e+11 </wgt>
<wgt id='1188'> +2.8426191e+11 </wgt>
<wgt id='1189'> +2.8327760e+11 </wgt>
<wgt id='1190'> +2.8225984e+11 </wgt>
<wgt id='1191'> +2.9231943e+11 </wgt>
<wgt id='1192'> +2.8994825e+11 </wgt>
<wgt id='1193'> +2.9278523e+11 </wgt>
<wgt id='1194'> +2.8229391e+11 </wgt>
<wgt id='1195'> +2.8381243e+11 </wgt>
<wgt id='1196'> +2.9182536e+11 </wgt>
<wgt id='1197'> +2.9210453e+11 </wgt>
<wgt id='1198'> +2.8099471e+11 </wgt>
<wgt id='1199'> +2.8640116e+11 </wgt>
<wgt id='1200'> +2.8509622e+11 </wgt>
<wgt id='1201'> +2.7994371e+11 </wgt>
<wgt id='1202'> +2.8736822e+11 </wgt>
<wgt id='1203'> +2.7963578e+11 </wgt>
<wgt id='1204'> +2.8494247e+11 </wgt>
<wgt id='1205'> +2.8394288e+11 </wgt>
<wgt id='1206'> +2.7831605e+11 </wgt>
<wgt id='1207'> +2.9172581e+11 </wgt>
<wgt id='1208'> +2.7129753e+11 </wgt>
<wgt id='1209'> +2.8134918e+11 </wgt>
<wgt id='1210'> +2.8357245e+11 </wgt>
<wgt id='1211'> +2.8547468e+11 </wgt>
<wgt id='1212'> +2.8314898e+11 </wgt>
<wgt id='1213'> +2.9082087e+11 </wgt>
<wgt id='1214'> +2.7649533e+11 </wgt>
<wgt id='1215'> +2.8794827e+11 </wgt>
<wgt id='1216'> +2.8394590e+11 </wgt>
<wgt id='1217'> +2.7671732e+11 </wgt>
<wgt id='1218'> +2.8471577e+11 </wgt>
<wgt id='1219'> +2.9380698e+11 </wgt>
<wgt id='1220'> +2.7844205e+11 </wgt>
<wgt id='1221'> +2.7598706e+11 </wgt>
<wgt id='1222'> +2.7918547e+11 </wgt>
<wgt id='1223'> +2.7289438e+11 </wgt>
<wgt id='1224'> +2.8315319e+11 </wgt>
<wgt id='1225'> +2.8831440e+11 </wgt>
<wgt id='1226'> +2.8818481e+11 </wgt>
<wgt id='1227'> +2.7717502e+11 </wgt>
<wgt id='1228'> +2.8180932e+11 </wgt>
<wgt id='1229'> +3.0193367e+11 </wgt>
<wgt id='1230'> +2.9159052e+11 </wgt>
<wgt id='1231'> +2.7784629e+11 </wgt>
<wgt id='1232'> +2.8779990e+11 </wgt>
<wgt id='1233'> +2.7696056e+11 </wgt>
<wgt id='1234'> +2.7682550e+11 </wgt>
<wgt id='1235'> +3.0072282e+11 </wgt>
<wgt id='1236'> +2.7695566e+11 </wgt>
<wgt id='1237'> +2.8907504e+11 </wgt>
<wgt id='1238'> +2.8549462e+11 </wgt>
<wgt id='1239'> +2.8842520e+11 </wgt>
<wgt id='1240'> +2.8150893e+11 </wgt>
<wgt id='1241'> +2.8369559e+11 </wgt>
<wgt id='1242'> +2.8008503e+11 </wgt>
<wgt id='1243'> +2.8699631e+11 </wgt>
<wgt id='1244'> +2.8389862e+11 </wgt>
<wgt id='1245'> +2.8025760e+11 </wgt>
<wgt id='1246'> +3.0559568e+11 </wgt>
<wgt id='1247'> +2.8219794e+11 </wgt>
<wgt id='1248'> +2.7390654e+11 </wgt>
<wgt id='1249'> +2.7638393e+11 </wgt>
<wgt id='1250'> +2.9259701e+11 </wgt>
<wgt id='1251'> +3.0022663e+11 </wgt>
<wgt id='1252'> +2.8812792e+11 </wgt>
<wgt id='1253'> +2.8783635e+11 </wgt>
<wgt id='1254'> +2.8913230e+11 </wgt>
<wgt id='1255'> +3.0039768e+11 </wgt>
<wgt id='1256'> +2.9981715e+11 </wgt>
<wgt id='1257'> +2.9337979e+11 </wgt>
<wgt id='1258'> +2.9728468e+11 </wgt>
<wgt id='1259'> +2.9816567e+11 </wgt>
<wgt id='1260'> +3.2625236e+11 </wgt>
<wgt id='1261'> +3.1433518e+11 </wgt>
<wgt id='1262'> +2.9173911e+11 </wgt>
<wgt id='1263'> +2.9821726e+11 </wgt>
<wgt id='1264'> +3.0076493e+11 </wgt>
<wgt id='1265'> +2.9734239e+11 </wgt>
<wgt id='1266'> +2.9888838e+11 </wgt>
<wgt id='1267'> +3.2811345e+11 </wgt>
<wgt id='1268'> +2.9274656e+11 </wgt>
<wgt id='1269'> +2.8758694e+11 </wgt>
<wgt id='1270'> +2.9723968e+11 </wgt>
<wgt id='1271'> +2.7469365e+11 </wgt>
<wgt id='1272'> +2.9362854e+11 </wgt>
<wgt id='1273'> +2.9167910e+11 </wgt>
<wgt id='1274'> +2.8727662e+11 </wgt>
<wgt id='1275'> +2.9725986e+11 </wgt>
<wgt id='1276'> +2.9866305e+11 </wgt>
<wgt id='1277'> +2.9380602e+11 </wgt>
<wgt id='1278'> +2.9318519e+11 </wgt>
<wgt id='1279'> +2.8100589e+11 </wgt>
<wgt id='1280'> +2.9017079e+11 </wgt>
<wgt id='1281'> +2.8580190e+11 </wgt>
<wgt id='1282'> +2.9659475e+11 </wgt>
<wgt id='1283'> +3.0142521e+11 </wgt>
<wgt id='1284'> +3.1300670e+11 </wgt>
<wgt id='1285'> +3.0869731e+11 </wgt>
<wgt id='1286'> +3.2950356e+11 </wgt>
<wgt id='1287'> +3.0472316e+11 </wgt>
<wgt id='1288'> +3.2745173e+11 </wgt>
<wgt id='1289'> +3.1377176e+11 </wgt>
<wgt id='1290'> +3.1225232e+11 </wgt>
<wgt id='1291'> +2.7851423e+11 </wgt>
<wgt id='1292'> +2.9999327e+11 </wgt>
<wgt id='1293'> +3.0208221e+11 </wgt>
<wgt id='1294'> +3.1765603e+11 </wgt>
<wgt id='1295'> +3.0458166e+11 </wgt>
<wgt id='1296'> +3.2054504e+11 </wgt>
<wgt id='1297'> +2.9437013e+11 </wgt>
<wgt id='1298'> +2.8825986e+11 </wgt>
<wgt id='1299'> +3.0121571e+11 </wgt>
<wgt id='1300'> +2.8821620e+11 </wgt>
<wgt id='1301'> +2.8016523e+11 </wgt>
<wgt id='1302'> +2.8079320e+11 </wgt>
<wgt id='1303'> +3.0055876e+11 </wgt>
<wgt id='1304'> +3.1366327e+11 </wgt>
<wgt id='1305'> +2.9899037e+11 </wgt>
<wgt id='1306'> +3.0609410e+11 </wgt>
<wgt id='1307'> +2.9841126e+11 </wgt>
<wgt id='1308'> +3.2772505e+11 </wgt>
<wgt id='1309'> +2.9807110e+11 </wgt>
<wgt id='1310'> +3.0303202e+11 </wgt>
<wgt id='1311'> +3.0483177e+11 </wgt>
<wgt id='1312'> +3.0384396e+11 </wgt>
<wgt id='1313'> +2.9968191e+11 </wgt>
<wgt id='1314'> +3.0105061e+11 </wgt>
<wgt id='1315'> +2.8662465e+11 </wgt>
<wgt id='1316'> +2.9969941e+11 </wgt>
<wgt id='1317'> +3.0490867e+11 </wgt>
<wgt id='1318'> +2.8988598e+11 </wgt>
<wgt id='1319'> +3.0302765e+11 </wgt>
<wgt id='1320'> +3.1259869e+11 </wgt>
<wgt id='1321'> +2.9647031e+11 </wgt>
<wgt id='1322'> +3.0077058e+11 </wgt>
<wgt id='1323'> +2.9607638e+11 </wgt>
<wgt id='1324'> +3.0364243e+11 </wgt>
<wgt id='1325'> +3.1193373e+11 </wgt>
<wgt id='1326'> +3.0610112e+11 </wgt>
<wgt id='1327'> +3.0151005e+11 </wgt>
<wgt id='1328'> +3.0002905e+11 </wgt>
<wgt id='1329'> +2.9841721e+11 </wgt>
<wgt id='1330'> +2.8913361e+11 </wgt>
<wgt id='1331'> +3.2097829e+11 </wgt>
<wgt id='1332'> +2.9026459e+11 </wgt>
<wgt id='1333'> +3.0185756e+11 </wgt>
<wgt id='1334'> +3.1516226e+11 </wgt>
<wgt id='1335'> +2.9341148e+11 </wgt>
<wgt id='1336'> +3.0771523e+11 </wgt>
<wgt id='1337'> +3.0910177e+11 </wgt>
<wgt id='1338'> +2.8954112e+11 </wgt>
<wgt id='1339'> +3.1901728e+11 </wgt>
<wgt id='1340'> +3.0371018e+11 </wgt>
<wgt id='1341'> +3.1108024e+11 </wgt>
<wgt id='1342'> +3.1120902e+11 </wgt>
<wgt id='1343'> +3.1009050e+11 </wgt>
<wgt id='1344'> +3.0941356e+11 </wgt>
<wgt id='1345'> +2.7462766e+11 </wgt>
<wgt id='1346'> +3.0186027e+11 </wgt>
<wgt id='1347'> +2.8916329e+11 </wgt>
<wgt id='1348'> +2.8944867e+11 </wgt>
<wgt id='1349'> +2.8866701e+11 </wgt>
<wgt id='1350'> +3.0361269e+11 </wgt>
<wgt id='1351'> +2.9512931e+11 </wgt>
<wgt id='1352'> +3.0220940e+11 </wgt>
<wgt id='1353'> +2.9885914e+11 </wgt>
<wgt id='1354'> +3.0826235e+11 </wgt>
<wgt id='1355'> +2.7579868e+11 </wgt>
<wgt id='1356'> +2.7850353e+11 </wgt>
<wgt id='1357'> +2.7630299e+11 </wgt>
<wgt id='1358'> +2.7359304e+11 </wgt>
<wgt id='1359'> +2.7611024e+11 </wgt>
<wgt id='1360'> +2.6987893e+11 </wgt>
<wgt id='1361'> +2.7533032e+11 </wgt>
<wgt id='1362'> +2.7994003e+11 </wgt>
<wgt id='1363'> +2.7107843e+11 </wgt>
<wgt id='1364'> +2.8116985e+11 </wgt>
<wgt id='1365'> +2.7355294e+11 </wgt>
<wgt id='1366'> +2.7423544e+11 </wgt>
<wgt id='1367'> +2.7639373e+11 </wgt>
<wgt id='1368'> +2.7600958e+11 </wgt>
<wgt id='1369'> +2.7915853e+11 </wgt>
<wgt id='1370'> +2.7379640e+11 </wgt>
<wgt id='1371'> +2.7493916e+11 </wgt>
<wgt id='1372'> +2.7931781e+11 </wgt>
<wgt id='1373'> +2.7915613e+11 </wgt>
<wgt id='1374'> +2.6785267e+11 </wgt>
<wgt id='1375'> +2.7565146e+11 </wgt>
<wgt id='1376'> +2.7590751e+11 </wgt>
<wgt id='1377'> +2.7620129e+11 </wgt>
<wgt id='1378'> +2.7311114e+11 </wgt>
<wgt id='1379'> +2.7427805e+11 </wgt>
<wgt id='1380'> +2.7373886e+11 </wgt>
<wgt id='1381'> +2.8088250e+11 </wgt>
<wgt id='1382'> +2.7517293e+11 </wgt>
<wgt id='1383'> +2.7475304e+11 </wgt>
<wgt id='1384'> +2.7338368e+11 </wgt>
<wgt id='1385'> +2.7316224e+11 </wgt>
<wgt id='1386'> +2.7636325e+11 </wgt>
<wgt id='1387'> +2.7443714e+11 </wgt>
<wgt id='1388'> +2.7156902e+11 </wgt>
<wgt id='1389'> +2.7457267e+11 </wgt>
<wgt id='1390'> +2.7609662e+11 </wgt>
<wgt id='1391'> +2.7367729e+11 </wgt>
<wgt id='1392'> +2.7339788e+11 </wgt>
<wgt id='1393'> +2.7486453e+11 </wgt>
<wgt id='1394'> +2.7386474e+11 </wgt>
<wgt id='1395'> +2.7128362e+11 </wgt>
<wgt id='1396'> +2.7655681e+11 </wgt>
<wgt id='1397'> +2.7656059e+11 </wgt>
<wgt id='1398'> +2.7707140e+11 </wgt>
<wgt id='1399'> +2.7231450e+11 </wgt>
<wgt id='1400'> +2.7212938e+11 </wgt>
<wgt id='1401'> +2.7532403e+11 </wgt>
<wgt id='1402'> +2.7879348e+11 </wgt>
<wgt id='1403'> +2.8054377e+11 </wgt>
<wgt id='1404'> +2.7557081e+11 </wgt>
<wgt id='1405'> +2.8199908e+11 </wgt>
<wgt id='1406'> +2.7651405e+11 </wgt>
<wgt id='1407'> +2.7623499e+11 </wgt>
<wgt id='1408'> +2.7985873e+11 </wgt>
<wgt id='1409'> +2.7289471e+11 </wgt>
<wgt id='1410'> +2.7129987e+11 </wgt>
<wgt id='1411'> +2.7550910e+11 </wgt>
<wgt id='1412'> +2.7416789e+11 </wgt>
<wgt id='1413'> +2.7350596e+11 </wgt>
<wgt id='1414'> +2.7799057e+11 </wgt>
<wgt id='1415'> +2.8016182e+11 </wgt>
<wgt id='1416'> +2.7844516e+11 </wgt>
<wgt id='1417'> +2.7065035e+11 </wgt>
<wgt id='1418'> +2.7665701e+11 </wgt>
<wgt id='1419'> +2.7953661e+11 </wgt>
<wgt id='1420'> +2.7443543e+11 </wgt>
<wgt id='1421'> +2.8189104e+11 </wgt>
<wgt id='1422'> +2.6872864e+11 </wgt>
<wgt id='1423'> +2.8081653e+11 </wgt>
<wgt id='1424'> +2.7696825e+11 </wgt>
<wgt id='1425'> +2.7629551e+11 </wgt>
<wgt id='1426'> +2.7855360e+11 </wgt>
<wgt id='1427'> +2.7550345e+11 </wgt>
<wgt id='1428'> +2.7536644e+11 </wgt>
<wgt id='1429'> +2.7358413e+11 </wgt>
<wgt id='1430'> +2.7153083e+11 </wgt>
<wgt id='1431'> +2.7080002e+11 </wgt>
<wgt id='1432'> +2.7637118e+11 </wgt>
<wgt id='1433'> +2.7511579e+11 </wgt>
<wgt id='1434'> +2.8304805e+11 </wgt>
<wgt id='1435'> +2.7479103e+11 </wgt>
<wgt id='1436'> +2.7962057e+11 </wgt>
<wgt id='1437'> +2.7714712e+11 </wgt>
<wgt id='1438'> +2.7449448e+11 </wgt>
<wgt id='1439'> +2.7812092e+11 </wgt>
<wgt id='1440'> +2.7936374e+11 </wgt>
<wgt id='1441'> +2.7441582e+11 </wgt>
<wgt id='1442'> +2.8201627e+11 </wgt>
<wgt id='1443'> +2.7366277e+11 </wgt>
<wgt id='1444'> +2.7605617e+11 </wgt>
<wgt id='1445'> +2.7774970e+11 </wgt>
<wgt id='1446'> +2.7965828e+11 </wgt>
<wgt id='1447'> +2.7265626e+11 </wgt>
<wgt id='1448'> +2.7820396e+11 </wgt>
<wgt id='1449'> +2.7798091e+11 </wgt>
<wgt id='1450'> +2.7458900e+11 </wgt>
<wgt id='1451'> +2.7718362e+11 </wgt>
<wgt id='1452'> +2.7838051e+11 </wgt>
<wgt id='1453'> +2.7888432e+11 </wgt>
<wgt id='1454'> +2.6857367e+11 </wgt>
<wgt id='1455'> +2.7483313e+11 </wgt>
<wgt id='1456'> +2.7491262e+11 </wgt>
<wgt id='1457'> +2.7469282e+11 </wgt>
<wgt id='1458'> +2.7892840e+11 </wgt>
<wgt id='1459'> +3.0712004e+11 </wgt>
<wgt id='1460'> +3.0233597e+11 </wgt>
<wgt id='1461'> +3.5301250e+11 </wgt>
<wgt id='1462'> +2.9885482e+11 </wgt>
<wgt id='1463'> +2.9909450e+11 </wgt>
<wgt id='1464'> +2.9854741e+11 </wgt>
<wgt id='1465'> +2.9891788e+11 </wgt>
<wgt id='1466'> +2.9879719e+11 </wgt>
<wgt id='1467'> +2.9900183e+11 </wgt>
<wgt id='1468'> +2.9861359e+11 </wgt>
<wgt id='1469'> +2.9841223e+11 </wgt>
<wgt id='1470'> +2.9921427e+11 </wgt>
<wgt id='1471'> +2.9932194e+11 </wgt>
<wgt id='1472'> +2.9837368e+11 </wgt>
<wgt id='1473'> +3.0001557e+11 </wgt>
<wgt id='1474'> +2.9773993e+11 </wgt>
<wgt id='1475'> +2.9995952e+11 </wgt>
<wgt id='1476'> +2.9807162e+11 </wgt>
<wgt id='1477'> +2.9829185e+11 </wgt>
<wgt id='1478'> +3.0016992e+11 </wgt>
<wgt id='1479'> +2.9835411e+11 </wgt>
<wgt id='1480'> +2.9920569e+11 </wgt>
<wgt id='1481'> +2.9840581e+11 </wgt>
<wgt id='1482'> +2.9946075e+11 </wgt>
<wgt id='1483'> +2.9894392e+11 </wgt>
<wgt id='1484'> +2.9872890e+11 </wgt>
<wgt id='1485'> +2.9906012e+11 </wgt>
<wgt id='1486'> +2.9836041e+11 </wgt>
<wgt id='1487'> +2.9911612e+11 </wgt>
<wgt id='1488'> +2.9852731e+11 </wgt>
<wgt id='1489'> +2.9849818e+11 </wgt>
<wgt id='1490'> +2.9982172e+11 </wgt>
<wgt id='1491'> +3.0377744e+11 </wgt>
<wgt id='1492'> +2.9610876e+11 </wgt>
<wgt id='1493'> +2.9532448e+11 </wgt>
<wgt id='1494'> +3.0992225e+11 </wgt>
<wgt id='1495'> +2.9817506e+11 </wgt>
<wgt id='1496'> +2.9958414e+11 </wgt>
<wgt id='1497'> +2.9905357e+11 </wgt>
<wgt id='1498'> +2.9858316e+11 </wgt>
<wgt id='1499'> +3.0076535e+11 </wgt>
<wgt id='1500'> +2.9781011e+11 </wgt>
<wgt id='1501'> +2.9929765e+11 </wgt>
<wgt id='1502'> +2.9768180e+11 </wgt>
<wgt id='1503'> +2.9551170e+11 </wgt>
<wgt id='1504'> +3.0244990e+11 </wgt>
<wgt id='1505'> +2.9979935e+11 </wgt>
<wgt id='1506'> +2.9794065e+11 </wgt>
<wgt id='1507'> +3.0060198e+11 </wgt>
<wgt id='1508'> +2.9711423e+11 </wgt>
<wgt id='1509'> +2.9947329e+11 </wgt>
<wgt id='1510'> +2.9619760e+11 </wgt>
<wgt id='1511'> +2.9999736e+11 </wgt>
<wgt id='1512'> +2.9851627e+11 </wgt>
<wgt id='1513'> +2.9876233e+11 </wgt>
<wgt id='1514'> +2.9895165e+11 </wgt>
<wgt id='1515'> +3.0153665e+11 </wgt>
<wgt id='1516'> +2.9912800e+11 </wgt>
<wgt id='1517'> +2.9845289e+11 </wgt>
<wgt id='1518'> +2.9924137e+11 </wgt>
<wgt id='1519'> +2.9714861e+11 </wgt>
<wgt id='1520'> +3.0006768e+11 </wgt>
<wgt id='1521'> +2.9798905e+11 </wgt>
<wgt id='1522'> +2.9936459e+11 </wgt>
<wgt id='1523'> +3.0015814e+11 </wgt>
<wgt id='1524'> +3.0028443e+11 </wgt>
<wgt id='1525'> +2.9996992e+11 </wgt>
<wgt id='1526'> +2.9979004e+11 </wgt>
<wgt id='1527'> +2.9885482e+11 </wgt>
<wgt id='1528'> +2.9848444e+11 </wgt>
<wgt id='1529'> +2.9874902e+11 </wgt>
<wgt id='1530'> +2.9499968e+11 </wgt>
<wgt id='1531'> +2.9698895e+11 </wgt>
<wgt id='1532'> +2.9474642e+11 </wgt>
<wgt id='1533'> +2.9224439e+11 </wgt>
<wgt id='1534'> +2.9540763e+11 </wgt>
<wgt id='1535'> +2.9942228e+11 </wgt>
<wgt id='1536'> +2.9446499e+11 </wgt>
<wgt id='1537'> +2.9704111e+11 </wgt>
<wgt id='1538'> +2.9379899e+11 </wgt>
<wgt id='1539'> +3.0280781e+11 </wgt>
<wgt id='1540'> +2.9651213e+11 </wgt>
<wgt id='1541'> +2.9770068e+11 </wgt>
<wgt id='1542'> +2.9698959e+11 </wgt>
<wgt id='1543'> +2.9827885e+11 </wgt>
<wgt id='1544'> +2.9509462e+11 </wgt>
<wgt id='1545'> +2.9498864e+11 </wgt>
<wgt id='1546'> +2.9304527e+11 </wgt>
<wgt id='1547'> +2.9930629e+11 </wgt>
<wgt id='1548'> +2.9514793e+11 </wgt>
<wgt id='1549'> +2.9349305e+11 </wgt>
<wgt id='1550'> +2.9799416e+11 </wgt>
<wgt id='1551'> +2.9757218e+11 </wgt>
<wgt id='1552'> +2.9651978e+11 </wgt>
<wgt id='1553'> +2.9935246e+11 </wgt>
<wgt id='1554'> +2.9689444e+11 </wgt>
<wgt id='1555'> +2.9768390e+11 </wgt>
<wgt id='1556'> +2.9936747e+11 </wgt>
<wgt id='1557'> +2.9589043e+11 </wgt>
<wgt id='1558'> +2.9709936e+11 </wgt>
<wgt id='1559'> +2.9477343e+11 </wgt>
<wgt id='1560'> +2.9572274e+11 </wgt>
<wgt id='1561'> +2.9365858e+11 </wgt>
<wgt id='1562'> +2.9562898e+11 </wgt>
<wgt id='1563'> +2.9704706e+11 </wgt>
<wgt id='1564'> +2.9655147e+11 </wgt>
<wgt id='1565'> +2.9909552e+11 </wgt>
<wgt id='1566'> +2.9693673e+11 </wgt>
<wgt id='1567'> +3.0025631e+11 </wgt>
<wgt id='1568'> +2.9691058e+11 </wgt>
<wgt id='1569'> +2.9660285e+11 </wgt>
<wgt id='1570'> +3.0425716e+11 </wgt>
<wgt id='1571'> +2.9686727e+11 </wgt>
<wgt id='1572'> +2.9903263e+11 </wgt>
<wgt id='1573'> +3.0036468e+11 </wgt>
<wgt id='1574'> +2.6367338e+11 </wgt>
<wgt id='1575'> +2.6374459e+11 </wgt>
<wgt id='1576'> +2.6360547e+11 </wgt>
<wgt id='1577'> +2.6369164e+11 </wgt>
<wgt id='1578'> +2.6427992e+11 </wgt>
<wgt id='1579'> +2.6452073e+11 </wgt>
<wgt id='1580'> +2.6429216e+11 </wgt>
<wgt id='1581'> +2.6308244e+11 </wgt>
<wgt id='1582'> +2.6278551e+11 </wgt>
<wgt id='1583'> +2.6322276e+11 </wgt>
<wgt id='1584'> +2.6425095e+11 </wgt>
<wgt id='1585'> +2.6387554e+11 </wgt>
<wgt id='1586'> +2.6270467e+11 </wgt>
<wgt id='1587'> +2.6293451e+11 </wgt>
<wgt id='1588'> +2.6244640e+11 </wgt>
<wgt id='1589'> +2.6340365e+11 </wgt>
<wgt id='1590'> +2.6349783e+11 </wgt>
<wgt id='1591'> +2.6374468e+11 </wgt>
<wgt id='1592'> +2.6265346e+11 </wgt>
<wgt id='1593'> +2.6274861e+11 </wgt>
<wgt id='1594'> +2.6454951e+11 </wgt>
<wgt id='1595'> +2.6135894e+11 </wgt>
<wgt id='1596'> +2.6743002e+11 </wgt>
<wgt id='1597'> +2.6543377e+11 </wgt>
<wgt id='1598'> +2.6563218e+11 </wgt>
<wgt id='1599'> +2.6085881e+11 </wgt>
<wgt id='1600'> +2.6822161e+11 </wgt>
<wgt id='1601'> +2.6581621e+11 </wgt>
<wgt id='1602'> +2.6372213e+11 </wgt>
<wgt id='1603'> +2.7505853e+11 </wgt>
<wgt id='1604'> +2.6371012e+11 </wgt>
</rwgt>
</event>
<event>
 9      1 +2.8343000e+11 1.40000000e+03 7.81738600e-03 7.88881100e-02
       21 -1    0    0  504  503 +0.0000000000e+00 +0.0000000000e+00 +7.0183871609e+02 7.0183871609e+02 0.0000000000e+00 0.0000e+00 -1.0000e+00
       21 -1    0    0  503  504 -0.0000000000e+00 -0.0000000000e+00 -6.9816645365e+02 6.9816645365e+02 0.0000000000e+00 0.0000e+00 -1.0000e+00
       45  2    1    2    0    0 +5.6843418861e-14 +0.0000000000e+00 +3.6722624443e+00 1.4000051697e+03 1.4000003535e+03 0.0000e+00 0.0000e+00
       25  2    3    3    0    0 +3.3563633011e+02 +2.6113421383e+02 -5.4341464836e+02 7.0125850470e+02 1.2498474565e+02 0.0000e+00 0.0000e+00
       35  2    3    3    0    0 -3.3563633011e+02 -2.6113421383e+02 +5.4708691081e+02 6.9874666504e+02 8.9999945617e+01 0.0000e+00 0.0000e+00
        5  1    5    5  501    0 -3.1348944597e+02 -2.1624536245e+02 +4.5083800641e+02 5.9017824031e+02 4.2140000000e+00 0.0000e+00 1.0000e+00
       -5  1    5    5    0  501 -2.2146884137e+01 -4.4888851376e+01 +9.6248904400e+01 1.0856842473e+02 4.2140000000e+00 0.0000e+00 1.0000e+00
        5  1    4    4  502    0 +3.0542158622e+02 +1.7539188591e+02 -4.3371049189e+02 5.5871925646e+02 4.2140000000e+00 0.0000e+00 1.0000e+00
       -5  1    4    4    0  502 +3.0214743885e+01 +8.5742327920e+01 -1.0970415648e+02 1.4253924824e+02 4.2140000000e+00 0.0000e+00 1.0000e+00
<mgrwt>
<rscale>  0 0.14000004E+04</rscale>
<asrwt>0</asrwt>
<pdfrwt beam="1">  1       21 0.10797519E+00 0.14000004E+04</pdfrwt>
<pdfrwt beam="2">  1       21 0.10741022E+00 0.14000004E+04</pdfrwt>
<totfact> 0.35889613E+02</totfact>
</mgrwt>
<rwgt>
<wgt id='1001'> +2.8343000e+11 </wgt>
<wgt id='1002'> +3.0600239e+11 </wgt>
<wgt id='1003'> +3.0598917e+11 </wgt>
<wgt id='1004'> +3.4472041e+11 </wgt>
<wgt id='1005'> +2.8343000e+11 </wgt>
<wgt id='1006'> +2.8343000e+11 </wgt>
<wgt id='1007'> +3.0600239e+11 </wgt>
<wgt id='1008'> +3.0598917e+11 </wgt>
<wgt id='1009'> +3.4472041e+11 </wgt>
<wgt id='1010'> +2.8343000e+11 </wgt>
<wgt id='1011'> +2.8343000e+11 </wgt>
<wgt id='1012'> +3.0600239e+11 </wgt>
<wgt id='1013'> +3.0598917e+11 </wgt>
<wgt id='1014'> +3.4472041e+11 </wgt>
<wgt id='1015'> +2.8343000e+11 </wgt>
<wgt id='1016'> +2.5470600e+11 </wgt>
<wgt id='1017'> +2.7369770e+11 </wgt>
<wgt id='1018'> +2.7368666e+11 </wgt>
<wgt id='1019'> +3.0598917e+11 </wgt>
<wgt id='1020'> +2.5470600e+11 </wgt>
<wgt id='1021'> +2.5470600e+11 </wgt>
<wgt id='1022'> +2.7369770e+11 </wgt>
<wgt id='1023'> +2.7368666e+11 </wgt>
<wgt id='1024'> +3.0598917e+11 </wgt>
<wgt id='1025'> +2.5470600e+11 </wgt>
<wgt id='1026'> +2.5470600e+11 </wgt>
<wgt id='1027'> +2.7369770e+11 </wgt>
<wgt id='1028'> +2.7368666e+11 </wgt>
<wgt id='1029'> +3.0598917e+11 </wgt>
<wgt id='1030'> +2.5470600e+11 </wgt>
<wgt id='1031'> +3.1765768e+11 </wgt>
<wgt id='1032'> +3.4473627e+11 </wgt>
<wgt id='1033'> +3.4472041e+11 </wgt>
<wgt id='1034'> +3.9171074e+11 </wgt>
<wgt id='1035'> +3.1765769e+11 </wgt>
<wgt id='1036'> +3.1765768e+11 </wgt>
<wgt id='1037'> +3.4473627e+11 </wgt>
<wgt id='1038'> +3.4472041e+11 </wgt>
<wgt id='1039'> +3.9171074e+11 </wgt>
<wgt id='1040'> +3.1765769e+11 </wgt>
<wgt id='1041'> +3.1765768e+11 </wgt>
<wgt id='1042'> +3.4473627e+11 </wgt>
<wgt id='1043'> +3.4472041e+11 </wgt>
<wgt id='1044'> +3.9171074e+11 </wgt>
<wgt id='1045'> +3.1765769e+11 </wgt>
<wgt id='1046'> +2.8343000e+11 </wgt>
<wgt id='1047'> +2.8343000e+11 </wgt>
<wgt id='1048'> +2.8343000e+11 </wgt>
<wgt id='1049'> +2.8225527e+11 </wgt>
<wgt id='1050'> +2.8304253e+11 </wgt>
<wgt id='1051'> +2.8377226e+11 </wgt>
<wgt id='1052'> +2.8419492e+11 </wgt>
<wgt id='1053'> +2.8189666e+11 </wgt>
<wgt id='1054'> +2.8388659e+11 </wgt>
<wgt id='1055'> +2.8224835e+11 </wgt>
<wgt id='1056'> +2.8179579e+11 </wgt>
<wgt id='1057'> +2.8422925e+11 </wgt>
<wgt id='1058'> +2.8306012e+11 </wgt>
<wgt id='1059'> +2.8541438e+11 </wgt>
<wgt id='1060'> +2.8366112e+11 </wgt>
<wgt id='1061'> +2.8421695e+11 </wgt>
<wgt id='1062'> +2.8400363e+11 </wgt>
<wgt id='1063'> +2.8363431e+11 </wgt>
<wgt id='1064'> +2.8471093e+11 </wgt>
<wgt id='1065'> +2.8488056e+11 </wgt>
<wgt id='1066'> +2.8202176e+11 </wgt>
<wgt id='1067'> +2.7964307e+11 </wgt>
<wgt id='1068'> +2.8383041e+11 </wgt>
<wgt id='1069'> +2.8280064e+11 </wgt>
<wgt id='1070'> +2.8340243e+11 </wgt>
<wgt id='1071'> +2.8495655e+11 </wgt>
<wgt id='1072'> +2.8110641e+11 </wgt>
<wgt id='1073'> +2.8412726e+11 </wgt>
<wgt id='1074'> +2.8301921e+11 </wgt>
<wgt id='1075'> +2.8440175e+11 </wgt>
<wgt id='1076'> +2.8330331e+11 </wgt>
<wgt id='1077'> +2.8299850e+11 </wgt>
<wgt id='1078'> +2.8409652e+11 </wgt>
<wgt id='1079'> +2.8176620e+11 </wgt>
<wgt id='1080'> +2.8276019e+11 </wgt>
<wgt id='1081'> +2.8303019e+11 </wgt>
<wgt id='1082'> +2.8203755e+11 </wgt>
<wgt id='1083'> +2.8400229e+11 </wgt>
<wgt id='1084'> +2.8407114e+11 </wgt>
<wgt id='1085'> +2.8285948e+11 </wgt>
<wgt id='1086'> +2.8278562e+11 </wgt>
<wgt id='1087'> +2.8307978e+11 </wgt>
<wgt id='1088'> +2.8293486e+11 </wgt>
<wgt id='1089'> +2.8279757e+11 </wgt>
<wgt id='1090'> +2.8413193e+11 </wgt>
<wgt id='1091'> +2.8347981e+11 </wgt>
<wgt id='1092'> +2.8371099e+11 </wgt>
<wgt id='1093'> +2.8332969e+11 </wgt>
<wgt id='1094'> +2.8292129e+11 </wgt>
<wgt id='1095'> +2.8354439e+11 </wgt>
<wgt id='1096'> +2.8339400e+11 </wgt>
<wgt id='1097'> +2.8303962e+11 </wgt>
<wgt id='1098'> +2.8307658e+11 </wgt>
<wgt id='1099'> +2.8324008e+11 </wgt>
<wgt id='1100'> +2.8402249e+11 </wgt>
<wgt id='1101'> +2.8341450e+11 </wgt>
<wgt id='1102'> +2.8328988e+11 </wgt>
<wgt id='1103'> +2.8310082e+11 </wgt>
<wgt id='1104'> +2.8310267e+11 </wgt>
<wgt id='1105'> +2.8353365e+11 </wgt>
<wgt id='1106'> +2.8377181e+11 </wgt>
<wgt id='1107'> +2.8334654e+11 </wgt>
<wgt id='1108'> +2.8333490e+11 </wgt>
<wgt id='1109'> +2.8324498e+11 </wgt>
<wgt id='1110'> +2.8376162e+11 </wgt>
<wgt id='1111'> +2.8356182e+11 </wgt>
<wgt id='1112'> +2.8339568e+11 </wgt>
<wgt id='1113'> +2.8373591e+11 </wgt>
<wgt id='1114'> +2.8311003e+11 </wgt>
<wgt id='1115'> +2.8326374e+11 </wgt>
<wgt id='1116'> +2.8372843e+11 </wgt>
<wgt id='1117'> +2.8337576e+11 </wgt>
<wgt id='1118'> +2.8353538e+11 </wgt>
<wgt id='1119'> +2.8325681e+11 </wgt>
<wgt id='1120'> +2.8329025e+11 </wgt>
<wgt id='1121'> +2.8350448e+11 </wgt>
<wgt id='1122'> +2.8322663e+11 </wgt>
<wgt id='1123'> +2.8337125e+11 </wgt>
<wgt id='1124'> +2.8332829e+11 </wgt>
<wgt id='1125'> +2.8359102e+11 </wgt>
<wgt id='1126'> +2.8353505e+11 </wgt>
<wgt id='1127'> +2.8332180e+11 </wgt>
<wgt id='1128'> +2.8347638e+11 </wgt>
<wgt id='1129'> +2.8339608e+11 </wgt>
<wgt id='1130'> +2.8346854e+11 </wgt>
<wgt id='1131'> +2.8369057e+11 </wgt>
<wgt id='1132'> +2.8335375e+11 </wgt>
<wgt id='1133'> +2.8350592e+11 </wgt>
<wgt id='1134'> +2.8341214e+11 </wgt>
<wgt id='1135'> +2.8346710e+11 </wgt>
<wgt id='1136'> +2.8340338e+11 </wgt>
<wgt id='1137'> +2.8329164e+11 </wgt>
<wgt id='1138'> +2.8354128e+11 </wgt>
<wgt id='1139'> +2.8346806e+11 </wgt>
<wgt id='1140'> +2.8364368e+11 </wgt>
<wgt id='1141'> +2.8330871e+11 </wgt>
<wgt id='1142'> +2.8349837e+11 </wgt>
<wgt id='1143'> +2.8359088e+11 </wgt>
<wgt id='1144'> +2.8334625e+11 </wgt>
<wgt id='1145'> +2.8355211e+11 </wgt>
<wgt id='1146'> +2.8340859e+11 </wgt>
<wgt id='1147'> +2.8347165e+11 </wgt>
<wgt id='1148'> +2.8343000e+11 </wgt>
<wgt id='1149'> +2.8343000e+11 </wgt>
<wgt id='1150'> +2.9079415e+11 </wgt>
<wgt id='1151'> +2.8135076e+11 </wgt>
<wgt id='1152'> +2.8581175e+11 </wgt>
<wgt id='1153'> +2.8779354e+11 </wgt>
<wgt id='1154'> +2.8760384e+11 </wgt>
<wgt id='1155'> +2.8827481e+11 </wgt>
<wgt id='1156'> +2.7649032e+11 </wgt>
<wgt id='1157'> +2.7679301e+11 </wgt>
<wgt id='1158'> +2.7768212e+11 </wgt>
<wgt id='1159'> +2.9604025e+11 </wgt>
<wgt id='1160'> +2.8146385e+11 </wgt>
<wgt id='1161'> +2.8556867e+11 </wgt>
<wgt id='1162'> +2.7585384e+11 </wgt>
<wgt id='1163'> +2.8691256e+11 </wgt>
<wgt id='1164'> +2.6752196e+11 </wgt>
<wgt id='1165'> +2.7947477e+11 </wgt>
<wgt id='1166'> +2.8513270e+11 </wgt>
<wgt id='1167'> +2.8004679e+11 </wgt>
<wgt id='1168'> +2.7663267e+11 </wgt>
<wgt id='1169'> +2.7600568e+11 </wgt>
<wgt id='1170'> +2.7563378e+11 </wgt>
<wgt id='1171'> +2.7352757e+11 </wgt>
<wgt id='1172'> +2.7766210e+11 </wgt>
<wgt id='1173'> +2.8813580e+11 </wgt>
<wgt id='1174'> +2.7980518e+11 </wgt>
<wgt id='1175'> +2.7511263e+11 </wgt>
<wgt id='1176'> +2.8639333e+11 </wgt>
<wgt id='1177'> +2.7935733e+11 </wgt>
<wgt id='1178'> +2.8318269e+11 </wgt>
<wgt id='1179'> +2.8022847e+11 </wgt>
<wgt id='1180'> +2.8328636e+11 </wgt>
<wgt id='1181'> +2.7576856e+11 </wgt>
<wgt id='1182'> +2.8174934e+11 </wgt>
<wgt id='1183'> +2.9597965e+11 </wgt>
<wgt id='1184'> +2.7557967e+11 </wgt>
<wgt id='1185'> +2.8005752e+11 </wgt>
<wgt id='1186'> +2.7143318e+11 </wgt>
<wgt id='1187'> +2.8583715e+11 </wgt>
<wgt id='1188'> +2.7632930e+11 </wgt>
<wgt id='1189'> +2.8577747e+11 </wgt>
<wgt id='1190'> +2.8437221e+11 </wgt>
<wgt id='1191'> +2.9541004e+11 </wgt>
<wgt id='1192'> +2.9198047e+11 </wgt>
<wgt id='1193'> +2.9554834e+11 </wgt>
<wgt id='1194'> +2.8478928e+11 </wgt>
<wgt id='1195'> +2.8380614e+11 </wgt>
<wgt id='1196'> +2.9241127e+11 </wgt>
<wgt id='1197'> +2.9421508e+11 </wgt>
<wgt id='1198'> +2.7496097e+11 </wgt>
<wgt id='1199'> +2.8162078e+11 </wgt>
<wgt id='1200'> +2.8212996e+11 </wgt>
<wgt id='1201'> +2.7934049e+11 </wgt>
<wgt id='1202'> +2.8875021e+11 </wgt>
<wgt id='1203'> +2.7751495e+11 </wgt>
<wgt id='1204'> +2.8856212e+11 </wgt>
<wgt id='1205'> +2.8522290e+11 </wgt>
<wgt id='1206'> +2.7637740e+11 </wgt>
<wgt id='1207'> +2.9325247e+11 </wgt>
<wgt id='1208'> +2.7298493e+11 </wgt>
<wgt id='1209'> +2.7848159e+11 </wgt>
<wgt id='1210'> +2.8018909e+11 </wgt>
<wgt id='1211'> +2.8571958e+11 </wgt>
<wgt id='1212'> +2.8373050e+11 </wgt>
<wgt id='1213'> +2.9361266e+11 </wgt>
<wgt id='1214'> +2.7570069e+11 </wgt>
<wgt id='1215'> +2.9226834e+11 </wgt>
<wgt id='1216'> +2.8612950e+11 </wgt>
<wgt id='1217'> +2.7590556e+11 </wgt>
<wgt id='1218'> +2.8481509e+11 </wgt>
<wgt id='1219'> +2.9447060e+11 </wgt>
<wgt id='1220'> +2.7699988e+11 </wgt>
<wgt id='1221'> +2.7498167e+11 </wgt>
<wgt id='1222'> +2.8050836e+11 </wgt>
<wgt id='1223'> +2.7259574e+11 </wgt>
<wgt id='1224'> +2.8354960e+11 </wgt>
<wgt id='1225'> +2.8806878e+11 </wgt>
<wgt id='1226'> +2.9085257e+11 </wgt>
<wgt id='1227'> +2.7274268e+11 </wgt>
<wgt id='1228'> +2.8136248e+11 </wgt>
<wgt id='1229'> +3.0288362e+11 </wgt>
<wgt id='1230'> +2.9434883e+11 </wgt>
<wgt id='1231'> +2.7947477e+11 </wgt>
<wgt id='1232'> +2.8924941e+11 </wgt>
<wgt id='1233'> +2.7826465e+11 </wgt>
<wgt id='1234'> +2.7634645e+11 </wgt>
<wgt id='1235'> +3.0322055e+11 </wgt>
<wgt id='1236'> +2.7659890e+11 </wgt>
<wgt id='1237'> +2.8993103e+11 </wgt>
<wgt id='1238'> +2.8994979e+11 </wgt>
<wgt id='1239'> +2.9235732e+11 </wgt>
<wgt id='1240'> +2.8579961e+11 </wgt>
<wgt id='1241'> +2.8193582e+11 </wgt>
<wgt id='1242'> +2.8082562e+11 </wgt>
<wgt id='1243'> +2.8910884e+11 </wgt>
<wgt id='1244'> +2.8115701e+11 </wgt>
<wgt id='1245'> +2.8191877e+11 </wgt>
<wgt id='1246'> +3.0735927e+11 </wgt>
<wgt id='1247'> +2.8385209e+11 </wgt>
<wgt id='1248'> +2.7549379e+11 </wgt>
<wgt id='1249'> +2.7776625e+11 </wgt>
<wgt id='1250'> +2.9211530e+11 </wgt>
<wgt id='1251'> +2.9860717e+11 </wgt>
<wgt id='1252'> +2.8711405e+11 </wgt>
<wgt id='1253'> +2.8509777e+11 </wgt>
<wgt id='1254'> +2.8861616e+11 </wgt>
<wgt id='1255'> +2.9786443e+11 </wgt>
<wgt id='1256'> +2.9495744e+11 </wgt>
<wgt id='1257'> +2.8498752e+11 </wgt>
<wgt id='1258'> +3.0044391e+11 </wgt>
<wgt id='1259'> +2.9453231e+11 </wgt>
<wgt id='1260'> +3.2545187e+11 </wgt>
<wgt id='1261'> +3.1373244e+11 </wgt>
<wgt id='1262'> +2.8950051e+11 </wgt>
<wgt id='1263'> +2.9660669e+11 </wgt>
<wgt id='1264'> +2.9838186e+11 </wgt>
<wgt id='1265'> +2.9877971e+11 </wgt>
<wgt id='1266'> +2.9412242e+11 </wgt>
<wgt id='1267'> +3.1462372e+11 </wgt>
<wgt id='1268'> +2.9429266e+11 </wgt>
<wgt id='1269'> +2.8716693e+11 </wgt>
<wgt id='1270'> +2.9095906e+11 </wgt>
<wgt id='1271'> +2.7971624e+11 </wgt>
<wgt id='1272'> +2.9331280e+11 </wgt>
<wgt id='1273'> +2.9191328e+11 </wgt>
<wgt id='1274'> +2.8767575e+11 </wgt>
<wgt id='1275'> +2.9858505e+11 </wgt>
<wgt id='1276'> +2.9527849e+11 </wgt>
<wgt id='1277'> +2.9066027e+11 </wgt>
<wgt id='1278'> +2.8599369e+11 </wgt>
<wgt id='1279'> +2.8120396e+11 </wgt>
<wgt id='1280'> +2.9412572e+11 </wgt>
<wgt id='1281'> +2.8582965e+11 </wgt>
<wgt id='1282'> +2.9660261e+11 </wgt>
<wgt id='1283'> +2.9589283e+11 </wgt>
<wgt id='1284'> +3.1489667e+11 </wgt>
<wgt id='1285'> +3.0815766e+11 </wgt>
<wgt id='1286'> +3.2862012e+11 </wgt>
<wgt id='1287'> +3.0321790e+11 </wgt>
<wgt id='1288'> +3.2337857e+11 </wgt>
<wgt id='1289'> +3.1292786e+11 </wgt>
<wgt id='1290'> +3.1133884e+11 </wgt>
<wgt id='1291'> +2.7786698e+11 </wgt>
<wgt id='1292'> +2.9722965e+11 </wgt>
<wgt id='1293'> +3.0000308e+11 </wgt>
<wgt id='1294'> +3.1418868e+11 </wgt>
<wgt id='1295'> +2.9763644e+11 </wgt>
<wgt id='1296'> +3.1503739e+11 </wgt>
<wgt id='1297'> +2.9556837e+11 </wgt>
<wgt id='1298'> +2.8773965e+11 </wgt>
<wgt id='1299'> +2.9838812e+11 </wgt>
<wgt id='1300'> +2.8792247e+11 </wgt>
<wgt id='1301'> +2.8102537e+11 </wgt>
<wgt id='1302'> +2.7518235e+11 </wgt>
<wgt id='1303'> +2.9824878e+11 </wgt>
<wgt id='1304'> +3.0552805e+11 </wgt>
<wgt id='1305'> +2.9826353e+11 </wgt>
<wgt id='1306'> +3.0511469e+11 </wgt>
<wgt id='1307'> +3.0403811e+11 </wgt>
<wgt id='1308'> +3.2514321e+11 </wgt>
<wgt id='1309'> +2.9563744e+11 </wgt>
<wgt id='1310'> +3.0212672e+11 </wgt>
<wgt id='1311'> +3.0818124e+11 </wgt>
<wgt id='1312'> +2.9886736e+11 </wgt>
<wgt id='1313'> +2.9666821e+11 </wgt>
<wgt id='1314'> +3.0436958e+11 </wgt>
<wgt id='1315'> +2.8475886e+11 </wgt>
<wgt id='1316'> +2.9840883e+11 </wgt>
<wgt id='1317'> +3.0110287e+11 </wgt>
<wgt id='1318'> +2.8598967e+11 </wgt>
<wgt id='1319'> +3.0805123e+11 </wgt>
<wgt id='1320'> +3.0878364e+11 </wgt>
<wgt id='1321'> +2.9361780e+11 </wgt>
<wgt id='1322'> +2.9773005e+11 </wgt>
<wgt id='1323'> +2.9876219e+11 </wgt>
<wgt id='1324'> +3.0112390e+11 </wgt>
<wgt id='1325'> +3.1083472e+11 </wgt>
<wgt id='1326'> +3.0257402e+11 </wgt>
<wgt id='1327'> +2.9296653e+11 </wgt>
<wgt id='1328'> +3.0284033e+11 </wgt>
<wgt id='1329'> +2.9767616e+11 </wgt>
<wgt id='1330'> +2.9081176e+11 </wgt>
<wgt id='1331'> +3.1908106e+11 </wgt>
<wgt id='1332'> +2.8576354e+11 </wgt>
<wgt id='1333'> +3.0040913e+11 </wgt>
<wgt id='1334'> +3.1379255e+11 </wgt>
<wgt id='1335'> +2.9241605e+11 </wgt>
<wgt id='1336'> +3.0190100e+11 </wgt>
<wgt id='1337'> +3.0840933e+11 </wgt>
<wgt id='1338'> +2.8982318e+11 </wgt>
<wgt id='1339'> +3.2038191e+11 </wgt>
<wgt id='1340'> +3.0150423e+11 </wgt>
<wgt id='1341'> +3.0444123e+11 </wgt>
<wgt id='1342'> +3.1589477e+11 </wgt>
<wgt id='1343'> +3.1027059e+11 </wgt>
<wgt id='1344'> +3.0291930e+11 </wgt>
<wgt id='1345'> +2.8040669e+11 </wgt>
<wgt id='1346'> +2.9933248e+11 </wgt>
<wgt id='1347'> +2.8663434e+11 </wgt>
<wgt id='1348'> +2.8790145e+11 </wgt>
<wgt id='1349'> +2.8994416e+11 </wgt>
<wgt id='1350'> +3.0022693e+11 </wgt>
<wgt id='1351'> +2.9687630e+11 </wgt>
<wgt id='1352'> +3.0032839e+11 </wgt>
<wgt id='1353'> +2.9701691e+11 </wgt>
<wgt id='1354'> +3.0680652e+11 </wgt>
<wgt id='1355'> +2.7540318e+11 </wgt>
<wgt id='1356'> +2.7816038e+11 </wgt>
<wgt id='1357'> +2.7632591e+11 </wgt>
<wgt id='1358'> +2.7279166e+11 </wgt>
<wgt id='1359'> +2.7619044e+11 </wgt>
<wgt id='1360'> +2.6855392e+11 </wgt>
<wgt id='1361'> +2.7548249e+11 </wgt>
<wgt id='1362'> +2.7706497e+11 </wgt>
<wgt id='1363'> +2.6917479e+11 </wgt>
<wgt id='1364'> +2.8174778e+11 </wgt>
<wgt id='1365'> +2.7307002e+11 </wgt>
<wgt id='1366'> +2.7567615e+11 </wgt>
<wgt id='1367'> +2.7627027e+11 </wgt>
<wgt id='1368'> +2.7542764e+11 </wgt>
<wgt id='1369'> +2.7980670e+11 </wgt>
<wgt id='1370'> +2.7352524e+11 </wgt>
<wgt id='1371'> +2.7295954e+11 </wgt>
<wgt id='1372'> +2.7997943e+11 </wgt>
<wgt id='1373'> +2.7907255e+11 </wgt>
<wgt id='1374'> +2.6730448e+11 </wgt>
<wgt id='1375'> +2.7422221e+11 </wgt>
<wgt id='1376'> +2.7636172e+11 </wgt>
<wgt id='1377'> +2.7527634e+11 </wgt>
<wgt id='1378'> +2.7109127e+11 </wgt>
<wgt id='1379'> +2.7387146e+11 </wgt>
<wgt id='1380'> +2.7386524e+11 </wgt>
<wgt id='1381'> +2.8073083e+11 </wgt>
<wgt id='1382'> +2.7505230e+11 </wgt>
<wgt id='1383'> +2.7544771e+11 </wgt>
<wgt id='1384'> +2.7381934e+11 </wgt>
<wgt id='1385'> +2.7403075e+11 </wgt>
<wgt id='1386'> +2.7746301e+11 </wgt>
<wgt id='1387'> +2.7443188e+11 </wgt>
<wgt id='1388'> +2.7174701e+11 </wgt>
<wgt id='1389'> +2.7365921e+11 </wgt>
<wgt id='1390'> +2.7423862e+11 </wgt>
<wgt id='1391'> +2.7314065e+11 </wgt>
<wgt id='1392'> +2.7325183e+11 </wgt>
<wgt id='1393'> +2.7330651e+11 </wgt>
<wgt id='1394'> +2.7308051e+11 </wgt>
<wgt id='1395'> +2.7117412e+11 </wgt>
<wgt id='1396'> +2.7646592e+11 </wgt>
<wgt id='1397'> +2.7598840e+11 </wgt>
<wgt id='1398'> +2.7598651e+11 </wgt>
<wgt id='1399'> +2.7094469e+11 </wgt>
<wgt id='1400'> +2.7251904e+11 </wgt>
<wgt id='1401'> +2.7382805e+11 </wgt>
<wgt id='1402'> +2.7867547e+11 </wgt>
<wgt id='1403'> +2.7838290e+11 </wgt>
<wgt id='1404'> +2.7305059e+11 </wgt>
<wgt id='1405'> +2.8151495e+11 </wgt>
<wgt id='1406'> +2.7507988e+11 </wgt>
<wgt id='1407'> +2.7613358e+11 </wgt>
<wgt id='1408'> +2.7851797e+11 </wgt>
<wgt id='1409'> +2.7337767e+11 </wgt>
<wgt id='1410'> +2.7328095e+11 </wgt>
<wgt id='1411'> +2.7508343e+11 </wgt>
<wgt id='1412'> +2.7434397e+11 </wgt>
<wgt id='1413'> +2.7229858e+11 </wgt>
<wgt id='1414'> +2.7706583e+11 </wgt>
<wgt id='1415'> +2.8129227e+11 </wgt>
<wgt id='1416'> +2.7857973e+11 </wgt>
<wgt id='1417'> +2.6858019e+11 </wgt>
<wgt id='1418'> +2.7713302e+11 </wgt>
<wgt id='1419'> +2.7891405e+11 </wgt>
<wgt id='1420'> +2.7466264e+11 </wgt>
<wgt id='1421'> +2.8145600e+11 </wgt>
<wgt id='1422'> +2.6777473e+11 </wgt>
<wgt id='1423'> +2.8066101e+11 </wgt>
<wgt id='1424'> +2.7639979e+11 </wgt>
<wgt id='1425'> +2.7558651e+11 </wgt>
<wgt id='1426'> +2.7902965e+11 </wgt>
<wgt id='1427'> +2.7538019e+11 </wgt>
<wgt id='1428'> +2.7527420e+11 </wgt>
<wgt id='1429'> +2.7108980e+11 </wgt>
<wgt id='1430'> +2.7062411e+11 </wgt>
<wgt id='1431'> +2.7074636e+11 </wgt>
<wgt id='1432'> +2.7743499e+11 </wgt>
<wgt id='1433'> +2.7614704e+11 </wgt>
<wgt id='1434'> +2.8203235e+11 </wgt>
<wgt id='1435'> +2.7455432e+11 </wgt>
<wgt id='1436'> +2.7960619e+11 </wgt>
<wgt id='1437'> +2.7821168e+11 </wgt>
<wgt id='1438'> +2.7338218e+11 </wgt>
<wgt id='1439'> +2.7599353e+11 </wgt>
<wgt id='1440'> +2.8008020e+11 </wgt>
<wgt id='1441'> +2.7542249e+11 </wgt>
<wgt id='1442'> +2.8316508e+11 </wgt>
<wgt id='1443'> +2.7359883e+11 </wgt>
<wgt id='1444'> +2.7356964e+11 </wgt>
<wgt id='1445'> +2.7845359e+11 </wgt>
<wgt id='1446'> +2.7750027e+11 </wgt>
<wgt id='1447'> +2.7133997e+11 </wgt>
<wgt id='1448'> +2.7775629e+11 </wgt>
<wgt id='1449'> +2.7667187e+11 </wgt>
<wgt id='1450'> +2.7346031e+11 </wgt>
<wgt id='1451'> +2.7662779e+11 </wgt>
<wgt id='1452'> +2.7864971e+11 </wgt>
<wgt id='1453'> +2.8062706e+11 </wgt>
<wgt id='1454'> +2.6882733e+11 </wgt>
<wgt id='1455'> +2.7465794e+11 </wgt>
<wgt id='1456'> +2.7464766e+11 </wgt>
<wgt id='1457'> +2.7417454e+11 </wgt>
<wgt id='1458'> +2.7719054e+11 </wgt>
<wgt id='1459'> +3.0510828e+11 </wgt>
<wgt id='1460'> +3.0043427e+11 </wgt>
<wgt id='1461'> +3.4720021e+11 </wgt>
<wgt id='1462'> +2.9973670e+11 </wgt>
<wgt id='1463'> +2.9998765e+11 </wgt>
<wgt id='1464'> +2.9941487e+11 </wgt>
<wgt id='1465'> +2.9979795e+11 </wgt>
<wgt id='1466'> +2.9968075e+11 </wgt>
<wgt id='1467'> +2.9990138e+11 </wgt>
<wgt id='1468'> +2.9946652e+11 </wgt>
<wgt id='1469'> +2.9928542e+11 </wgt>
<wgt id='1470'> +3.0010324e+11 </wgt>
<wgt id='1471'> +3.0021648e+11 </wgt>
<wgt id='1472'> +2.9924255e+11 </wgt>
<wgt id='1473'> +3.0088600e+11 </wgt>
<wgt id='1474'> +2.9863281e+11 </wgt>
<wgt id='1475'> +3.0083420e+11 </wgt>
<wgt id='1476'> +2.9895859e+11 </wgt>
<wgt id='1477'> +2.9916209e+11 </wgt>
<wgt id='1478'> +3.0107894e+11 </wgt>
<wgt id='1479'> +2.9915305e+11 </wgt>
<wgt id='1480'> +3.0014398e+11 </wgt>
<wgt id='1481'> +2.9931823e+11 </wgt>
<wgt id='1482'> +3.0030096e+11 </wgt>
<wgt id='1483'> +2.9983566e+11 </wgt>
<wgt id='1484'> +2.9959610e+11 </wgt>
<wgt id='1485'> +2.9993723e+11 </wgt>
<wgt id='1486'> +2.9925379e+11 </wgt>
<wgt id='1487'> +2.9998386e+11 </wgt>
<wgt id='1488'> +2.9942564e+11 </wgt>
<wgt id='1489'> +2.9938597e+11 </wgt>
<wgt id='1490'> +3.0068748e+11 </wgt>
<wgt id='1491'> +3.0465625e+11 </wgt>
<wgt id='1492'> +2.9699064e+11 </wgt>
<wgt id='1493'> +2.9624312e+11 </wgt>
<wgt id='1494'> +3.1068509e+11 </wgt>
<wgt id='1495'> +2.9910807e+11 </wgt>
<wgt id='1496'> +3.0041092e+11 </wgt>
<wgt id='1497'> +2.9993561e+11 </wgt>
<wgt id='1498'> +2.9946486e+11 </wgt>
<wgt id='1499'> +3.0159905e+11 </wgt>
<wgt id='1500'> +2.9871779e+11 </wgt>
<wgt id='1501'> +3.0020449e+11 </wgt>
<wgt id='1502'> +2.9849684e+11 </wgt>
<wgt id='1503'> +2.9663010e+11 </wgt>
<wgt id='1504'> +3.0302632e+11 </wgt>
<wgt id='1505'> +3.0077466e+11 </wgt>
<wgt id='1506'> +2.9874086e+11 </wgt>
<wgt id='1507'> +3.0098069e+11 </wgt>
<wgt id='1508'> +2.9913854e+11 </wgt>
<wgt id='1509'> +3.0030418e+11 </wgt>
<wgt id='1510'> +2.9730163e+11 </wgt>
<wgt id='1511'> +3.0083975e+11 </wgt>
<wgt id='1512'> +2.9942758e+11 </wgt>
<wgt id='1513'> +2.9965901e+11 </wgt>
<wgt id='1514'> +2.9980570e+11 </wgt>
<wgt id='1515'> +3.0210619e+11 </wgt>
<wgt id='1516'> +3.0022228e+11 </wgt>
<wgt id='1517'> +2.9936862e+11 </wgt>
<wgt id='1518'> +3.0003163e+11 </wgt>
<wgt id='1519'> +2.9812214e+11 </wgt>
<wgt id='1520'> +3.0088606e+11 </wgt>
<wgt id='1521'> +2.9898546e+11 </wgt>
<wgt id='1522'> +3.0018916e+11 </wgt>
<wgt id='1523'> +3.0111131e+11 </wgt>
<wgt id='1524'> +3.0107997e+11 </wgt>
<wgt id='1525'> +3.0099306e+11 </wgt>
<wgt id='1526'> +3.0049266e+11 </wgt>
<wgt id='1527'> +2.9973670e+11 </wgt>
<wgt id='1528'> +2.9958638e+11 </wgt>
<wgt id='1529'> +2.9935268e+11 </wgt>
<wgt id='1530'> +2.9558175e+11 </wgt>
<wgt id='1531'> +2.9659520e+11 </wgt>
<wgt id='1532'> +2.9420587e+11 </wgt>
<wgt id='1533'> +2.9222678e+11 </wgt>
<wgt id='1534'> +2.9498273e+11 </wgt>
<wgt id='1535'> +2.9906751e+11 </wgt>
<wgt id='1536'> +2.9349708e+11 </wgt>
<wgt id='1537'> +2.9648296e+11 </wgt>
<wgt id='1538'> +2.9343086e+11 </wgt>
<wgt id='1539'> +3.0285013e+11 </wgt>
<wgt id='1540'> +2.9571222e+11 </wgt>
<wgt id='1541'> +2.9666302e+11 </wgt>
<wgt id='1542'> +2.9649264e+11 </wgt>
<wgt id='1543'> +2.9761172e+11 </wgt>
<wgt id='1544'> +2.9469516e+11 </wgt>
<wgt id='1545'> +2.9464175e+11 </wgt>
<wgt id='1546'> +2.9270204e+11 </wgt>
<wgt id='1547'> +2.9888568e+11 </wgt>
<wgt id='1548'> +2.9457794e+11 </wgt>
<wgt id='1549'> +2.9326989e+11 </wgt>
<wgt id='1550'> +2.9717413e+11 </wgt>
<wgt id='1551'> +2.9724569e+11 </wgt>
<wgt id='1552'> +2.9590053e+11 </wgt>
<wgt id='1553'> +2.9836543e+11 </wgt>
<wgt id='1554'> +2.9643333e+11 </wgt>
<wgt id='1555'> +2.9718981e+11 </wgt>
<wgt id='1556'> +2.9895129e+11 </wgt>
<wgt id='1557'> +2.9592468e+11 </wgt>
<wgt id='1558'> +2.9656488e+11 </wgt>
<wgt id='1559'> +2.9458652e+11 </wgt>
<wgt id='1560'> +2.9538471e+11 </wgt>
<wgt id='1561'> +2.9261136e+11 </wgt>
<wgt id='1562'> +2.9515060e+11 </wgt>
<wgt id='1563'> +2.9650977e+11 </wgt>
<wgt id='1564'> +2.9621788e+11 </wgt>
<wgt id='1565'> +2.9879578e+11 </wgt>
<wgt id='1566'> +2.9690952e+11 </wgt>
<wgt id='1567'> +3.0016751e+11 </wgt>
<wgt id='1568'> +2.9654048e+11 </wgt>
<wgt id='1569'> +2.9623356e+11 </wgt>
<wgt id='1570'> +2.9794776e+11 </wgt>
<wgt id='1571'> +2.9639319e+11 </wgt>
<wgt id='1572'> +2.9827408e+11 </wgt>
<wgt id='1573'> +2.9934899e+11 </wgt>
<wgt id='1574'> +2.6341163e+11 </wgt>
<wgt id='1575'> +2.6348350e+11 </wgt>
<wgt id='1576'> +2.6334408e+11 </wgt>
<wgt id='1577'> +2.6342982e+11 </wgt>
<wgt id='1578'> +2.6401870e+11 </wgt>
<wgt id='1579'> +2.6427876e+11 </wgt>
<wgt id='1580'> +2.6405079e+11 </wgt>
<wgt id='1581'> +2.6278331e+11 </wgt>
<wgt id='1582'> +2.6247558e+11 </wgt>
<wgt id='1583'> +2.6297712e+11 </wgt>
<wgt id='1584'> +2.6398727e+11 </wgt>
<wgt id='1585'> +2.6359862e+11 </wgt>
<wgt id='1586'> +2.6238493e+11 </wgt>
<wgt id='1587'> +2.6264220e+11 </wgt>
<wgt id='1588'> +2.6213860e+11 </wgt>
<wgt id='1589'> +2.6316453e+11 </wgt>
<wgt id='1590'> +2.6322227e+11 </wgt>
<wgt id='1591'> +2.6347879e+11 </wgt>
<wgt id='1592'> +2.6238069e+11 </wgt>
<wgt id='1593'> +2.6255301e+11 </wgt>
<wgt id='1594'> +2.6421784e+11 </wgt>
<wgt id='1595'> +2.6119280e+11 </wgt>
<wgt id='1596'> +2.6696848e+11 </wgt>
<wgt id='1597'> +2.6513811e+11 </wgt>
<wgt id='1598'> +2.6536756e+11 </wgt>
<wgt id='1599'> +2.6068238e+11 </wgt>
<wgt id='1600'> +2.6781610e+11 </wgt>
<wgt id='1601'> +2.6555256e+11 </wgt>
<wgt id='1602'> +2.6346889e+11 </wgt>
<wgt id='1603'> +2.7369940e+11 </wgt>
<wgt id='1604'> +2.6349687e+11 </wgt>
</rwgt>
</event>
<event>
 9      1 +2.8343000e+11 1.39999900e+03 7.81738600e-03 7.88881200e-02
       21 -1    0    0  504  503 +0.0000000000e+00 +0.0000000000e+00 +1.6223874806e+03 1.6223874806e+03 0.0000000000e+00 0.0000e+00 -1.0000e+00
       21 -1    0    0  503  504 -0.0000000000e+00 -0.0000000000e+00 -3.0202363339e+02 3.0202363339e+02 0.0000000000e+00 0.0000e+00 -1.0000e+00
       45  2    1    2    0    0 +0.0000000000e+00 +0.0000000000e+00 +1.3203638472e+03 1.9244111140e+03 1.3999990881e+03 0.0000e+00 0.0000e+00
       25  2    3    3    0    0 -3.6016762802e+02 -5.8319983553e+02 +7.8794912457e+02 1.0518232356e+03 1.2500211016e+02 0.0000e+00 0.0000e+00
       35  2    3    3    0    0 +3.6016762802e+02 +5.8319983553e+02 +5.3241472268e+02 8.7258787846e+02 9.0007778991e+01 0.0000e+00 0.0000e+00
        5  1    5    5  501    0 +3.2857921039e+02 +5.3403424367e+02 +4.5144411549e+02 7.7264249050e+02 4.2140000000e+00 0.0000e+00 -1.0000e+00
       -5  1    5    5    0  501 +3.1588417633e+01 +4.9165591854e+01 +8.0970607186e+01 9.9945387962e+01 4.2140000000e+00 0.0000e+00 -1.0000e+00
        5  1    4    4  502    0 -2.1409251091e+02 -2.8920983523e+02 +4.9384931807e+02 6.1105060247e+02 4.2140000000e+00 0.0000e+00 -1.0000e+00
       -5  1    4    4    0  502 -1.4607511712e+02 -2.9399000030e+02 +2.9409980649e+02 4.4077263310e+02 4.2140000000e+00 0.0000e+00 -1.0000e+00
<mgrwt>
<rscale>  0 0.13999991E+04</rscale>
<asrwt>0</asrwt>
<pdfrwt beam="1">  1       21 0.24959807E+00 0.13999991E+04</pdfrwt>
<pdfrwt beam="2">  1       21 0.46465175E-01 0.13999991E+04</pdfrwt>
<totfact> 0.18414087E+02</totfact>
</mgrwt>
<rwgt>
<wgt id='1001'> +2.8343000e+11 </wgt>
<wgt id='1002'> +2.8434167e+11 </wgt>
<wgt id='1003'> +2.8433702e+11 </wgt>
<wgt id='1004'> +3.2105268e+11 </wgt>
<wgt id='1005'> +2.8343000e+11 </wgt>
<wgt id='1006'> +2.8343000e+11 </wgt>
<wgt id='1007'> +2.8434167e+11 </wgt>
<wgt id='1008'> +2.8433702e+11 </wgt>
<wgt id='1009'> +3.2105268e+11 </wgt>
<wgt id='1010'> +2.8343000e+11 </wgt>
<wgt id='1011'> +2.8343000e+11 </wgt>
<wgt id='1012'> +2.8434167e+11 </wgt>
<wgt id='1013'> +2.8433702e+11 </wgt>
<wgt id='1014'> +3.2105268e+11 </wgt>
<wgt id='1015'> +2.8343000e+11 </wgt>
<wgt id='1016'> +2.5295946e+11 </wgt>
<wgt id='1017'> +2.5372577e+11 </wgt>
<wgt id='1018'> +2.5372186e+11 </wgt>
<wgt id='1019'> +2.8433702e+11 </wgt>
<wgt id='1020'> +2.5295946e+11 </wgt>
<wgt id='1021'> +2.5295946e+11 </wgt>
<wgt id='1022'> +2.5372577e+11 </wgt>
<wgt id='1023'> +2.5372186e+11 </wgt>
<wgt id='1024'> +2.8433702e+11 </wgt>
<wgt id='1025'> +2.5295946e+11 </wgt>
<wgt id='1026'> +2.5295946e+11 </wgt>
<wgt id='1027'> +2.5372577e+11 </wgt>
<wgt id='1028'> +2.5372186e+11 </wgt>
<wgt id='1029'> +2.8433702e+11 </wgt>
<wgt id='1030'> +2.5295946e+11 </wgt>
<wgt id='1031'> +3.1995872e+11 </wgt>
<wgt id='1032'> +3.2105829e+11 </wgt>
<wgt id='1033'> +3.2105268e+11 </wgt>
<wgt id='1034'> +3.6551679e+11 </wgt>
<wgt id='1035'> +3.1995872e+11 </wgt>
<wgt id='1036'> +3.1995872e+11 </wgt>
<wgt id='1037'> +3.2105829e+11 </wgt>
<wgt id='1038'> +3.2105268e+11 </wgt>
<wgt id='1039'> +3.6551679e+11 </wgt>
<wgt id='1040'> +3.1995872e+11 </wgt>
<wgt id='1041'> +3.1995872e+11 </wgt>
<wgt id='1042'> +3.2105829e+11 </wgt>
<wgt id='1043'> +3.2105268e+11 </wgt>
<wgt id='1044'> +3.6551679e+11 </wgt>
<wgt id='1045'> +3.1995872e+11 </wgt>
<wgt id='1046'> +2.8343000e+11 </wgt>
<wgt id='1047'> +2.8343000e+11 </wgt>
<wgt id='1048'> +2.8343000e+11 </wgt>
<wgt id='1049'> +2.8310343e+11 </wgt>
<wgt id='1050'> +2.8302450e+11 </wgt>
<wgt id='1051'> +2.8358160e+11 </wgt>
<wgt id='1052'> +2.8385770e+11 </wgt>
<wgt id='1053'> +2.8146395e+11 </wgt>
<wgt id='1054'> +2.8427193e+11 </wgt>
<wgt id='1055'> +2.8197571e+11 </wgt>
<wgt id='1056'> +2.8165589e+11 </wgt>
<wgt id='1057'> +2.8219135e+11 </wgt>
<wgt id='1058'> +2.8250871e+11 </wgt>
<wgt id='1059'> +2.8586336e+11 </wgt>
<wgt id='1060'> +2.8349505e+11 </wgt>
<wgt id='1061'> +2.8420197e+11 </wgt>
<wgt id='1062'> +2.8434535e+11 </wgt>
<wgt id='1063'> +2.8474133e+11 </wgt>
<wgt id='1064'> +2.8434281e+11 </wgt>
<wgt id='1065'> +2.8521197e+11 </wgt>
<wgt id='1066'> +2.8199571e+11 </wgt>
<wgt id='1067'> +2.8234754e+11 </wgt>
<wgt id='1068'> +2.8417998e+11 </wgt>
<wgt id='1069'> +2.8243057e+11 </wgt>
<wgt id='1070'> +2.8398554e+11 </wgt>
<wgt id='1071'> +2.8317669e+11 </wgt>
<wgt id='1072'> +2.8411286e+11 </wgt>
<wgt id='1073'> +2.8192678e+11 </wgt>
<wgt id='1074'> +2.8224959e+11 </wgt>
<wgt id='1075'> +2.8272210e+11 </wgt>
<wgt id='1076'> +2.8253588e+11 </wgt>
<wgt id='1077'> +2.8179585e+11 </wgt>
<wgt id='1078'> +2.8342063e+11 </wgt>
<wgt id='1079'> +2.8245844e+11 </wgt>
<wgt id='1080'> +2.8259395e+11 </wgt>
<wgt id='1081'> +2.8318595e+11 </wgt>
<wgt id='1082'> +2.8307623e+11 </wgt>
<wgt id='1083'> +2.8437796e+11 </wgt>
<wgt id='1084'> +2.8399048e+11 </wgt>
<wgt id='1085'> +2.8227974e+11 </wgt>
<wgt id='1086'> +2.8441597e+11 </wgt>
<wgt id='1087'> +2.8368899e+11 </wgt>
<wgt id='1088'> +2.8260487e+11 </wgt>
<wgt id='1089'> +2.8254534e+11 </wgt>
<wgt id='1090'> +2.8430244e+11 </wgt>
<wgt id='1091'> +2.8371641e+11 </wgt>
<wgt id='1092'> +2.8364923e+11 </wgt>
<wgt id='1093'> +2.8337003e+11 </wgt>
<wgt id='1094'> +2.8189103e+11 </wgt>
<wgt id='1095'> +2.8382334e+11 </wgt>
<wgt id='1096'> +2.8342655e+11 </wgt>
<wgt id='1097'> +2.8269889e+11 </wgt>
<wgt id='1098'> +2.8308124e+11 </wgt>
<wgt id='1099'> +2.8329046e+11 </wgt>
<wgt id='1100'> +2.8394527e+11 </wgt>
<wgt id='1101'> +2.8337469e+11 </wgt>
<wgt id='1102'> +2.8324511e+11 </wgt>
<wgt id='1103'> +2.8230560e+11 </wgt>
<wgt id='1104'> +2.8355952e+11 </wgt>
<wgt id='1105'> +2.8355007e+11 </wgt>
<wgt id='1106'> +2.8391253e+11 </wgt>
<wgt id='1107'> +2.8382623e+11 </wgt>
<wgt id='1108'> +2.8315717e+11 </wgt>
<wgt id='1109'> +2.8337442e+11 </wgt>
<wgt id='1110'> +2.8360110e+11 </wgt>
<wgt id='1111'> +2.8395626e+11 </wgt>
<wgt id='1112'> +2.8323575e+11 </wgt>
<wgt id='1113'> +2.8381498e+11 </wgt>
<wgt id='1114'> +2.8312009e+11 </wgt>
<wgt id='1115'> +2.8270180e+11 </wgt>
<wgt id='1116'> +2.8436493e+11 </wgt>
<wgt id='1117'> +2.8331463e+11 </wgt>
<wgt id='1118'> +2.8394217e+11 </wgt>
<wgt id='1119'> +2.8284460e+11 </wgt>
<wgt id='1120'> +2.8278672e+11 </wgt>
<wgt id='1121'> +2.8346373e+11 </wgt>
<wgt id='1122'> +2.8287695e+11 </wgt>
<wgt id='1123'> +2.8336909e+11 </wgt>
<wgt id='1124'> +2.8359542e+11 </wgt>
<wgt id='1125'> +2.8362531e+11 </wgt>
<wgt id='1126'> +2.8357904e+11 </wgt>
<wgt id='1127'> +2.8333470e+11 </wgt>
<wgt id='1128'> +2.8330331e+11 </wgt>
<wgt id='1129'> +2.8315760e+11 </wgt>
<wgt id='1130'> +2.8345560e+11 </wgt>
<wgt id='1131'> +2.8416096e+11 </wgt>
<wgt id='1132'> +2.8325926e+11 </wgt>
<wgt id='1133'> +2.8363714e+11 </wgt>
<wgt id='1134'> +2.8336126e+11 </wgt>
<wgt id='1135'> +2.8348130e+11 </wgt>
<wgt id='1136'> +2.8322599e+11 </wgt>
<wgt id='1137'> +2.8312477e+11 </wgt>
<wgt id='1138'> +2.8360139e+11 </wgt>
<wgt id='1139'> +2.8363678e+11 </wgt>
<wgt id='1140'> +2.8376037e+11 </wgt>
<wgt id='1141'> +2.8306606e+11 </wgt>
<wgt id='1142'> +2.8348175e+11 </wgt>
<wgt id='1143'> +2.8368648e+11 </wgt>
<wgt id='1144'> +2.8332845e+11 </wgt>
<wgt id='1145'> +2.8363570e+11 </wgt>
<wgt id='1146'> +2.8356985e+11 </wgt>
<wgt id='1147'> +2.8351098e+11 </wgt>
<wgt id='1148'> +2.8343000e+11 </wgt>
<wgt id='1149'> +2.8343000e+11 </wgt>
<wgt id='1150'> +2.9100275e+11 </wgt>
<wgt id='1151'> +2.7693723e+11 </wgt>
<wgt id='1152'> +2.7217274e+11 </wgt>
<wgt id='1153'> +2.8552826e+11 </wgt>
<wgt id='1154'> +2.7603003e+11 </wgt>
<wgt id='1155'> +2.9938031e+11 </wgt>
<wgt id='1156'> +2.8378979e+11 </wgt>
<wgt id='1157'> +2.7888684e+11 </wgt>
<wgt id='1158'> +2.7769744e+11 </wgt>
<wgt id='1159'> +2.9037197e+11 </wgt>
<wgt id='1160'> +2.8155796e+11 </wgt>
<wgt id='1161'> +2.9725259e+11 </wgt>
<wgt id='1162'> +2.8667890e+11 </wgt>
<wgt id='1163'> +2.8825419e+11 </wgt>
<wgt id='1164'> +2.7371006e+11 </wgt>
<wgt id='1165'> +2.7406913e+11 </wgt>
<wgt id='1166'> +2.8377891e+11 </wgt>
<wgt id='1167'> +2.7964671e+11 </wgt>
<wgt id='1168'> +2.7143611e+11 </wgt>
<wgt id='1169'> +2.7591788e+11 </wgt>
<wgt id='1170'> +2.8436298e+11 </wgt>
<wgt id='1171'> +2.7436448e+11 </wgt>
<wgt id='1172'> +2.7099890e+11 </wgt>
<wgt id='1173'> +2.8795447e+11 </wgt>
<wgt id='1174'> +2.7839864e+11 </wgt>
<wgt id='1175'> +2.7856882e+11 </wgt>
<wgt id='1176'> +2.8882961e+11 </wgt>
<wgt id='1177'> +2.8312193e+11 </wgt>
<wgt id='1178'> +2.8651862e+11 </wgt>
<wgt id='1179'> +2.9223473e+11 </wgt>
<wgt id='1180'> +2.7735393e+11 </wgt>
<wgt id='1181'> +2.9073861e+11 </wgt>
<wgt id='1182'> +2.8329606e+11 </wgt>
<wgt id='1183'> +2.8984051e+11 </wgt>
<wgt id='1184'> +2.6488458e+11 </wgt>
<wgt id='1185'> +2.9165176e+11 </wgt>
<wgt id='1186'> +2.7867903e+11 </wgt>
<wgt id='1187'> +2.8921117e+11 </wgt>
<wgt id='1188'> +2.9458446e+11 </wgt>
<wgt id='1189'> +2.8473939e+11 </wgt>
<wgt id='1190'> +2.8091390e+11 </wgt>
<wgt id='1191'> +2.9403980e+11 </wgt>
<wgt id='1192'> +2.8720362e+11 </wgt>
<wgt id='1193'> +2.8758862e+11 </wgt>
<wgt id='1194'> +2.7538487e+11 </wgt>
<wgt id='1195'> +2.9104871e+11 </wgt>
<wgt id='1196'> +2.8829910e+11 </wgt>
<wgt id='1197'> +2.9083047e+11 </wgt>
<wgt id='1198'> +2.8495318e+11 </wgt>
<wgt id='1199'> +2.8368302e+11 </wgt>
<wgt id='1200'> +2.9333907e+11 </wgt>
<wgt id='1201'> +2.8587335e+11 </wgt>
<wgt id='1202'> +2.8252644e+11 </wgt>
<wgt id='1203'> +2.8822531e+11 </wgt>
<wgt id='1204'> +2.7782000e+11 </wgt>
<wgt id='1205'> +2.8865253e+11 </wgt>
<wgt id='1206'> +2.8075820e+11 </wgt>
<wgt id='1207'> +2.9381289e+11 </wgt>
<wgt id='1208'> +2.7412826e+11 </wgt>
<wgt id='1209'> +2.8542013e+11 </wgt>
<wgt id='1210'> +2.8567103e+11 </wgt>
<wgt id='1211'> +2.7887565e+11 </wgt>
<wgt id='1212'> +2.8071150e+11 </wgt>
<wgt id='1213'> +2.8308400e+11 </wgt>
<wgt id='1214'> +2.8044951e+11 </wgt>
<wgt id='1215'> +2.7892007e+11 </wgt>
<wgt id='1216'> +2.7047796e+11 </wgt>
<wgt id='1217'> +2.8475984e+11 </wgt>
<wgt id='1218'> +2.8378370e+11 </wgt>
<wgt id='1219'> +2.9154443e+11 </wgt>
<wgt id='1220'> +2.8085599e+11 </wgt>
<wgt id='1221'> +2.7470659e+11 </wgt>
<wgt id='1222'> +2.7948626e+11 </wgt>
<wgt id='1223'> +2.7484510e+11 </wgt>
<wgt id='1224'> +2.8165254e+11 </wgt>
<wgt id='1225'> +2.7691327e+11 </wgt>
<wgt id='1226'> +2.8481877e+11 </wgt>
<wgt id='1227'> +2.7794391e+11 </wgt>
<wgt id='1228'> +2.8065435e+11 </wgt>
<wgt id='1229'> +2.9799521e+11 </wgt>
<wgt id='1230'> +2.8644925e+11 </wgt>
<wgt id='1231'> +2.7406913e+11 </wgt>
<wgt id='1232'> +2.9008539e+11 </wgt>
<wgt id='1233'> +2.7818548e+11 </wgt>
<wgt id='1234'> +2.7852336e+11 </wgt>
<wgt id='1235'> +3.0341184e+11 </wgt>
<wgt id='1236'> +2.8305935e+11 </wgt>
<wgt id='1237'> +2.9364582e+11 </wgt>
<wgt id='1238'> +2.8433715e+11 </wgt>
<wgt id='1239'> +2.8928083e+11 </wgt>
<wgt id='1240'> +2.7425817e+11 </wgt>
<wgt id='1241'> +2.9116580e+11 </wgt>
<wgt id='1242'> +2.8243586e+11 </wgt>
<wgt id='1243'> +2.8148413e+11 </wgt>
<wgt id='1244'> +2.9272483e+11 </wgt>
<wgt id='1245'> +2.6907642e+11 </wgt>
<wgt id='1246'> +3.0328051e+11 </wgt>
<wgt id='1247'> +2.8142341e+11 </wgt>
<wgt id='1248'> +2.7482463e+11 </wgt>
<wgt id='1249'> +2.7570444e+11 </wgt>
<wgt id='1250'> +2.9647960e+11 </wgt>
<wgt id='1251'> +3.0746059e+11 </wgt>
<wgt id='1252'> +2.8923193e+11 </wgt>
<wgt id='1253'> +3.0468316e+11 </wgt>
<wgt id='1254'> +2.9283943e+11 </wgt>
<wgt id='1255'> +3.1264341e+11 </wgt>
<wgt id='1256'> +3.0945859e+11 </wgt>
<wgt id='1257'> +3.0162116e+11 </wgt>
<wgt id='1258'> +2.9237869e+11 </wgt>
<wgt id='1259'> +3.1900489e+11 </wgt>
<wgt id='1260'> +3.3888639e+11 </wgt>
<wgt id='1261'> +3.2341399e+11 </wgt>
<wgt id='1262'> +3.0118895e+11 </wgt>
<wgt id='1263'> +3.0562166e+11 </wgt>
<wgt id='1264'> +3.0538771e+11 </wgt>
<wgt id='1265'> +2.8951152e+11 </wgt>
<wgt id='1266'> +3.0856526e+11 </wgt>
<wgt id='1267'> +3.7658598e+11 </wgt>
<wgt id='1268'> +2.8715861e+11 </wgt>
<wgt id='1269'> +2.8618117e+11 </wgt>
<wgt id='1270'> +3.1778735e+11 </wgt>
<wgt id='1271'> +2.5893507e+11 </wgt>
<wgt id='1272'> +2.9887508e+11 </wgt>
<wgt id='1273'> +2.9320783e+11 </wgt>
<wgt id='1274'> +2.9094803e+11 </wgt>
<wgt id='1275'> +2.9101794e+11 </wgt>
<wgt id='1276'> +3.1371173e+11 </wgt>
<wgt id='1277'> +3.1092081e+11 </wgt>
<wgt id='1278'> +3.0748064e+11 </wgt>
<wgt id='1279'> +2.7852821e+11 </wgt>
<wgt id='1280'> +2.9151976e+11 </wgt>
<wgt id='1281'> +2.8665830e+11 </wgt>
<wgt id='1282'> +2.9415374e+11 </wgt>
<wgt id='1283'> +3.2587515e+11 </wgt>
<wgt id='1284'> +3.0234916e+11 </wgt>
<wgt id='1285'> +3.0651689e+11 </wgt>
<wgt id='1286'> +3.4208338e+11 </wgt>
<wgt id='1287'> +3.3445355e+11 </wgt>
<wgt id='1288'> +3.5845608e+11 </wgt>
<wgt id='1289'> +3.2480043e+11 </wgt>
<wgt id='1290'> +3.1642532e+11 </wgt>
<wgt id='1291'> +2.8181239e+11 </wgt>
<wgt id='1292'> +3.1054677e+11 </wgt>
<wgt id='1293'> +3.0599996e+11 </wgt>
<wgt id='1294'> +3.4381209e+11 </wgt>
<wgt id='1295'> +3.1664297e+11 </wgt>
<wgt id='1296'> +3.5096390e+11 </wgt>
<wgt id='1297'> +2.8540812e+11 </wgt>
<wgt id='1298'> +2.9361142e+11 </wgt>
<wgt id='1299'> +3.0971333e+11 </wgt>
<wgt id='1300'> +2.6889930e+11 </wgt>
<wgt id='1301'> +2.8044555e+11 </wgt>
<wgt id='1302'> +2.7955500e+11 </wgt>
<wgt id='1303'> +3.1181915e+11 </wgt>
<wgt id='1304'> +3.4779385e+11 </wgt>
<wgt id='1305'> +2.9778689e+11 </wgt>
<wgt id='1306'> +3.0783708e+11 </wgt>
<wgt id='1307'> +2.7620138e+11 </wgt>
<wgt id='1308'> +3.3918530e+11 </wgt>
<wgt id='1309'> +3.0947359e+11 </wgt>
<wgt id='1310'> +3.0782764e+11 </wgt>
<wgt id='1311'> +2.9185238e+11 </wgt>
<wgt id='1312'> +3.3747604e+11 </wgt>
<wgt id='1313'> +3.1527274e+11 </wgt>
<wgt id='1314'> +2.8408756e+11 </wgt>
<wgt id='1315'> +2.8824254e+11 </wgt>
<wgt id='1316'> +3.0134310e+11 </wgt>
<wgt id='1317'> +3.3246383e+11 </wgt>
<wgt id='1318'> +2.9276414e+11 </wgt>
<wgt id='1319'> +3.0333904e+11 </wgt>
<wgt id='1320'> +3.2631372e+11 </wgt>
<wgt id='1321'> +3.1349623e+11 </wgt>
<wgt id='1322'> +3.2766995e+11 </wgt>
<wgt id='1323'> +2.7748537e+11 </wgt>
<wgt id='1324'> +3.2081135e+11 </wgt>
<wgt id='1325'> +3.1754133e+11 </wgt>
<wgt id='1326'> +3.1584770e+11 </wgt>
<wgt id='1327'> +3.2843958e+11 </wgt>
<wgt id='1328'> +3.0774024e+11 </wgt>
<wgt id='1329'> +2.9667740e+11 </wgt>
<wgt id='1330'> +2.8028703e+11 </wgt>
<wgt id='1331'> +3.2951326e+11 </wgt>
<wgt id='1332'> +3.1191307e+11 </wgt>
<wgt id='1333'> +3.0420977e+11 </wgt>
<wgt id='1334'> +3.3109427e+11 </wgt>
<wgt id='1335'> +2.8704832e+11 </wgt>
<wgt id='1336'> +3.3509137e+11 </wgt>
<wgt id='1337'> +3.1265909e+11 </wgt>
<wgt id='1338'> +2.8439070e+11 </wgt>
<wgt id='1339'> +3.0687425e+11 </wgt>
<wgt id='1340'> +3.2819986e+11 </wgt>
<wgt id='1341'> +3.5497767e+11 </wgt>
<wgt id='1342'> +2.9192937e+11 </wgt>
<wgt id='1343'> +3.1120992e+11 </wgt>
<wgt id='1344'> +3.2946143e+11 </wgt>
<wgt id='1345'> +2.4563983e+11 </wgt>
<wgt id='1346'> +3.0871962e+11 </wgt>
<wgt id='1347'> +3.0258411e+11 </wgt>
<wgt id='1348'> +2.9245782e+11 </wgt>
<wgt id='1349'> +2.9275180e+11 </wgt>
<wgt id='1350'> +3.2862003e+11 </wgt>
<wgt id='1351'> +2.8845948e+11 </wgt>
<wgt id='1352'> +3.0950064e+11 </wgt>
<wgt id='1353'> +3.0872126e+11 </wgt>
<wgt id='1354'> +3.1652597e+11 </wgt>
<wgt id='1355'> +2.8376413e+11 </wgt>
<wgt id='1356'> +2.8617627e+11 </wgt>
<wgt id='1357'> +2.8575595e+11 </wgt>
<wgt id='1358'> +2.8228886e+11 </wgt>
<wgt id='1359'> +2.8134554e+11 </wgt>
<wgt id='1360'> +2.7913837e+11 </wgt>
<wgt id='1361'> +2.8194433e+11 </wgt>
<wgt id='1362'> +2.9335242e+11 </wgt>
<wgt id='1363'> +2.8414470e+11 </wgt>
<wgt id='1364'> +2.9366115e+11 </wgt>
<wgt id='1365'> +2.8150109e+11 </wgt>
<wgt id='1366'> +2.8027739e+11 </wgt>
<wgt id='1367'> +2.8023446e+11 </wgt>
<wgt id='1368'> +2.8625612e+11 </wgt>
<wgt id='1369'> +2.8731309e+11 </wgt>
<wgt id='1370'> +2.7666585e+11 </wgt>
<wgt id='1371'> +2.8177749e+11 </wgt>
<wgt id='1372'> +2.8039266e+11 </wgt>
<wgt id='1373'> +2.8898554e+11 </wgt>
<wgt id='1374'> +2.8052052e+11 </wgt>
<wgt id='1375'> +2.8606042e+11 </wgt>
<wgt id='1376'> +2.8336072e+11 </wgt>
<wgt id='1377'> +2.8306695e+11 </wgt>
<wgt id='1378'> +2.8792396e+11 </wgt>
<wgt id='1379'> +2.8152967e+11 </wgt>
<wgt id='1380'> +2.8121455e+11 </wgt>
<wgt id='1381'> +2.8729861e+11 </wgt>
<wgt id='1382'> +2.8069954e+11 </wgt>
<wgt id='1383'> +2.8001992e+11 </wgt>
<wgt id='1384'> +2.7626546e+11 </wgt>
<wgt id='1385'> +2.7748267e+11 </wgt>
<wgt id='1386'> +2.7955090e+11 </wgt>
<wgt id='1387'> +2.8275007e+11 </wgt>
<wgt id='1388'> +2.8009909e+11 </wgt>
<wgt id='1389'> +2.8028828e+11 </wgt>
<wgt id='1390'> +2.8745888e+11 </wgt>
<wgt id='1391'> +2.8641697e+11 </wgt>
<wgt id='1392'> +2.7650684e+11 </wgt>
<wgt id='1393'> +2.8723023e+11 </wgt>
<wgt id='1394'> +2.8520186e+11 </wgt>
<wgt id='1395'> +2.7714305e+11 </wgt>
<wgt id='1396'> +2.8392215e+11 </wgt>
<wgt id='1397'> +2.8329068e+11 </wgt>
<wgt id='1398'> +2.9169757e+11 </wgt>
<wgt id='1399'> +2.8193672e+11 </wgt>
<wgt id='1400'> +2.7719302e+11 </wgt>
<wgt id='1401'> +2.8359843e+11 </wgt>
<wgt id='1402'> +2.8568245e+11 </wgt>
<wgt id='1403'> +2.9652579e+11 </wgt>
<wgt id='1404'> +2.8877757e+11 </wgt>
<wgt id='1405'> +2.9402498e+11 </wgt>
<wgt id='1406'> +2.8981387e+11 </wgt>
<wgt id='1407'> +2.8752144e+11 </wgt>
<wgt id='1408'> +2.9535174e+11 </wgt>
<wgt id='1409'> +2.7670901e+11 </wgt>
<wgt id='1410'> +2.7614462e+11 </wgt>
<wgt id='1411'> +2.8336467e+11 </wgt>
<wgt id='1412'> +2.8673638e+11 </wgt>
<wgt id='1413'> +2.9093956e+11 </wgt>
<wgt id='1414'> +2.8641778e+11 </wgt>
<wgt id='1415'> +2.7868857e+11 </wgt>
<wgt id='1416'> +2.8359156e+11 </wgt>
<wgt id='1417'> +2.8145645e+11 </wgt>
<wgt id='1418'> +2.8138244e+11 </wgt>
<wgt id='1419'> +2.8607487e+11 </wgt>
<wgt id='1420'> +2.7346659e+11 </wgt>
<wgt id='1421'> +2.9200854e+11 </wgt>
<wgt id='1422'> +2.7470886e+11 </wgt>
<wgt id='1423'> +2.8605491e+11 </wgt>
<wgt id='1424'> +2.8206311e+11 </wgt>
<wgt id='1425'> +2.8312917e+11 </wgt>
<wgt id='1426'> +2.8752867e+11 </wgt>
<wgt id='1427'> +2.8053094e+11 </wgt>
<wgt id='1428'> +2.7984723e+11 </wgt>
<wgt id='1429'> +2.8506011e+11 </wgt>
<wgt id='1430'> +2.8045770e+11 </wgt>
<wgt id='1431'> +2.8383077e+11 </wgt>
<wgt id='1432'> +2.7645253e+11 </wgt>
<wgt id='1433'> +2.7567675e+11 </wgt>
<wgt id='1434'> +2.8812478e+11 </wgt>
<wgt id='1435'> +2.8443723e+11 </wgt>
<wgt id='1436'> +2.8764424e+11 </wgt>
<wgt id='1437'> +2.8116768e+11 </wgt>
<wgt id='1438'> +2.8357929e+11 </wgt>
<wgt id='1439'> +2.9316853e+11 </wgt>
<wgt id='1440'> +2.8287611e+11 </wgt>
<wgt id='1441'> +2.7892453e+11 </wgt>
<wgt id='1442'> +2.8425336e+11 </wgt>
<wgt id='1443'> +2.7799058e+11 </wgt>
<wgt id='1444'> +2.9375540e+11 </wgt>
<wgt id='1445'> +2.8033668e+11 </wgt>
<wgt id='1446'> +2.9598299e+11 </wgt>
<wgt id='1447'> +2.8639151e+11 </wgt>
<wgt id='1448'> +2.8685572e+11 </wgt>
<wgt id='1449'> +2.8621712e+11 </wgt>
<wgt id='1450'> +2.8203404e+11 </wgt>
<wgt id='1451'> +2.8134573e+11 </wgt>
<wgt id='1452'> +2.8662920e+11 </wgt>
<wgt id='1453'> +2.8788310e+11 </wgt>
<wgt id='1454'> +2.7389842e+11 </wgt>
<wgt id='1455'> +2.8208720e+11 </wgt>
<wgt id='1456'> +2.8123281e+11 </wgt>
<wgt id='1457'> +2.8460482e+11 </wgt>
<wgt id='1458'> +2.9294729e+11 </wgt>
<wgt id='1459'> +3.1557932e+11 </wgt>
<wgt id='1460'> +3.0990181e+11 </wgt>
<wgt id='1461'> +3.7630600e+11 </wgt>
<wgt id='1462'> +3.0600940e+11 </wgt>
<wgt id='1463'> +3.0622136e+11 </wgt>
<wgt id='1464'> +3.0573755e+11 </wgt>
<wgt id='1465'> +3.0608100e+11 </wgt>
<wgt id='1466'> +3.0594401e+11 </wgt>
<wgt id='1467'> +3.0610357e+11 </wgt>
<wgt id='1468'> +3.0585488e+11 </wgt>
<wgt id='1469'> +3.0557697e+11 </wgt>
<wgt id='1470'> +3.0636056e+11 </wgt>
<wgt id='1471'> +3.0645216e+11 </wgt>
<wgt id='1472'> +3.0555333e+11 </wgt>
<wgt id='1473'> +3.0724933e+11 </wgt>
<wgt id='1474'> +3.0481840e+11 </wgt>
<wgt id='1475'> +3.0717528e+11 </wgt>
<wgt id='1476'> +3.0518308e+11 </wgt>
<wgt id='1477'> +3.0546425e+11 </wgt>
<wgt id='1478'> +3.0728328e+11 </wgt>
<wgt id='1479'> +3.0577870e+11 </wgt>
<wgt id='1480'> +3.0617764e+11 </wgt>
<wgt id='1481'> +3.0533188e+11 </wgt>
<wgt id='1482'> +3.0692783e+11 </wgt>
<wgt id='1483'> +3.0604110e+11 </wgt>
<wgt id='1484'> +3.0597138e+11 </wgt>
<wgt id='1485'> +3.0621297e+11 </wgt>
<wgt id='1486'> +3.0551881e+11 </wgt>
<wgt id='1487'> +3.0629332e+11 </wgt>
<wgt id='1488'> +3.0565356e+11 </wgt>
<wgt id='1489'> +3.0561577e+11 </wgt>
<wgt id='1490'> +3.0707718e+11 </wgt>
<wgt id='1491'> +3.1125097e+11 </wgt>
<wgt id='1492'> +3.0309097e+11 </wgt>
<wgt id='1493'> +3.0218642e+11 </wgt>
<wgt id='1494'> +3.1800121e+11 </wgt>
<wgt id='1495'> +3.0503615e+11 </wgt>
<wgt id='1496'> +3.0705544e+11 </wgt>
<wgt id='1497'> +3.0624323e+11 </wgt>
<wgt id='1498'> +3.0569061e+11 </wgt>
<wgt id='1499'> +3.0831730e+11 </wgt>
<wgt id='1500'> +3.0475108e+11 </wgt>
<wgt id='1501'> +3.0623312e+11 </wgt>
<wgt id='1502'> +3.0543386e+11 </wgt>
<wgt id='1503'> +3.0070766e+11 </wgt>
<wgt id='1504'> +3.1207827e+11 </wgt>
<wgt id='1505'> +3.0646578e+11 </wgt>
<wgt id='1506'> +3.0555498e+11 </wgt>
<wgt id='1507'> +3.1073911e+11 </wgt>
<wgt id='1508'> +2.9769016e+11 </wgt>
<wgt id='1509'> +3.0695077e+11 </wgt>
<wgt id='1510'> +3.0193910e+11 </wgt>
<wgt id='1511'> +3.0725242e+11 </wgt>
<wgt id='1512'> +3.0572421e+11 </wgt>
<wgt id='1513'> +3.0573510e+11 </wgt>
<wgt id='1514'> +3.0633277e+11 </wgt>
<wgt id='1515'> +3.1090711e+11 </wgt>
<wgt id='1516'> +3.0484726e+11 </wgt>
<wgt id='1517'> +3.0533627e+11 </wgt>
<wgt id='1518'> +3.0709778e+11 </wgt>
<wgt id='1519'> +3.0377284e+11 </wgt>
<wgt id='1520'> +3.0759022e+11 </wgt>
<wgt id='1521'> +3.0445080e+11 </wgt>
<wgt id='1522'> +3.0687071e+11 </wgt>
<wgt id='1523'> +3.0723532e+11 </wgt>
<wgt id='1524'> +3.0780708e+11 </wgt>
<wgt id='1525'> +3.0646324e+11 </wgt>
<wgt id='1526'> +3.0792103e+11 </wgt>
<wgt id='1527'> +3.0600940e+11 </wgt>
<wgt id='1528'> +3.0410318e+11 </wgt>
<wgt id='1529'> +3.0779946e+11 </wgt>
<wgt id='1530'> +3.0012915e+11 </wgt>
<wgt id='1531'> +3.1267999e+11 </wgt>
<wgt id='1532'> +3.1362754e+11 </wgt>
<wgt id='1533'> +3.0657934e+11 </wgt>
<wgt id='1534'> +3.1069229e+11 </wgt>
<wgt id='1535'> +3.1645540e+11 </wgt>
<wgt id='1536'> +3.0854257e+11 </wgt>
<wgt id='1537'> +3.1591319e+11 </wgt>
<wgt id='1538'> +3.0799689e+11 </wgt>
<wgt id='1539'> +3.1772939e+11 </wgt>
<wgt id='1540'> +3.1505264e+11 </wgt>
<wgt id='1541'> +3.1499175e+11 </wgt>
<wgt id='1542'> +3.1313162e+11 </wgt>
<wgt id='1543'> +3.1512460e+11 </wgt>
<wgt id='1544'> +3.1093301e+11 </wgt>
<wgt id='1545'> +3.1070798e+11 </wgt>
<wgt id='1546'> +3.0901968e+11 </wgt>
<wgt id='1547'> +3.1491000e+11 </wgt>
<wgt id='1548'> +3.1188600e+11 </wgt>
<wgt id='1549'> +3.0905783e+11 </wgt>
<wgt id='1550'> +3.1561294e+11 </wgt>
<wgt id='1551'> +3.1331068e+11 </wgt>
<wgt id='1552'> +3.1311705e+11 </wgt>
<wgt id='1553'> +3.2004077e+11 </wgt>
<wgt id='1554'> +3.1321351e+11 </wgt>
<wgt id='1555'> +3.1376402e+11 </wgt>
<wgt id='1556'> +3.1465580e+11 </wgt>
<wgt id='1557'> +3.1251487e+11 </wgt>
<wgt id='1558'> +3.1301415e+11 </wgt>
<wgt id='1559'> +3.1010792e+11 </wgt>
<wgt id='1560'> +3.1198710e+11 </wgt>
<wgt id='1561'> +3.1133191e+11 </wgt>
<wgt id='1562'> +3.1026111e+11 </wgt>
<wgt id='1563'> +3.1306138e+11 </wgt>
<wgt id='1564'> +3.1240064e+11 </wgt>
<wgt id='1565'> +3.1651902e+11 </wgt>
<wgt id='1566'> +3.1266483e+11 </wgt>
<wgt id='1567'> +3.1222601e+11 </wgt>
<wgt id='1568'> +3.1249073e+11 </wgt>
<wgt id='1569'> +3.1193218e+11 </wgt>
<wgt id='1570'> +3.2000601e+11 </wgt>
<wgt id='1571'> +3.1272225e+11 </wgt>
<wgt id='1572'> +3.1369724e+11 </wgt>
<wgt id='1573'> +3.1814966e+11 </wgt>
<wgt id='1574'> +2.4923308e+11 </wgt>
<wgt id='1575'> +2.4929690e+11 </wgt>
<wgt id='1576'> +2.4916373e+11 </wgt>
<wgt id='1577'> +2.4925085e+11 </wgt>
<wgt id='1578'> +2.4980754e+11 </wgt>
<wgt id='1579'> +2.4999009e+11 </wgt>
<wgt id='1580'> +2.4975242e+11 </wgt>
<wgt id='1581'> +2.4884673e+11 </wgt>
<wgt id='1582'> +2.4859901e+11 </wgt>
<wgt id='1583'> +2.4874929e+11 </wgt>
<wgt id='1584'> +2.4979488e+11 </wgt>
<wgt id='1585'> +2.4953173e+11 </wgt>
<wgt id='1586'> +2.4855467e+11 </wgt>
<wgt id='1587'> +2.4865005e+11 </wgt>
<wgt id='1588'> +2.4823868e+11 </wgt>
<wgt id='1589'> +2.4886443e+11 </wgt>
<wgt id='1590'> +2.4909294e+11 </wgt>
<wgt id='1591'> +2.4931626e+11 </wgt>
<wgt id='1592'> +2.4829148e+11 </wgt>
<wgt id='1593'> +2.4803014e+11 </wgt>
<wgt id='1594'> +2.5042289e+11 </wgt>
<wgt id='1595'> +2.4655866e+11 </wgt>
<wgt id='1596'> +2.5380872e+11 </wgt>
<wgt id='1597'> +2.5106710e+11 </wgt>
<wgt id='1598'> +2.5112870e+11 </wgt>
<wgt id='1599'> +2.4608612e+11 </wgt>
<wgt id='1600'> +2.5437266e+11 </wgt>
<wgt id='1601'> +2.5139409e+11 </wgt>
<wgt id='1602'> +2.4934095e+11 </wgt>
<wgt id='1603'> +2.6504726e+11 </wgt>
<wgt id='1604'> +2.4928182e+11 </wgt>
</rwgt>
</event>
<event>
 9      1 +2.8343000e+11 1.39999900e+03 7.81738600e-03 7.88881200e-02
       21 -1    0    0  504  503 +0.0000000000e+00 +0.0000000000e+00 +5.4875659270e+02 5.4875659270e+02 0.0000000000e+00 0.0000e+00 -1.0000e+00
       21 -1    0    0  503  504 -0.0000000000e+00 -0.0000000000e+00 -8.9292712788e+02 8.9292712788e+02 0.0000000000e+00 0.0000e+00 -1.0000e+00
       45  2    1    2    0    0 +0.0000000000e+00 +0.0000000000e+00 -3.4417053519e+02 1.4416837206e+03 1.3999994975e+03 0.0000e+00 0.0000e+00
       25  2    3    3    0    0 +2.6138956939e+02 -2.6860423394e+02 -7.7114329341e+02 8.6646317993e+02 1.2499488682e+02 0.0000e+00 0.0000e+00
       35  2    3    3    0    0 -2.6138956939e+02 +2.6860423394e+02 +4.2697275823e+02 5.7522054065e+02 9.0001070227e+01 0.0000e+00 0.0000e+00
        5  1    5    5  501    0 -6.9801252236e+01 +1.3433262967e+02 +1.6530327791e+02 2.2418831748e+02 4.2140000000e+00 0.0000e+00 -1.0000e+00
       -5  1    5    5    0  501 -1.9158831715e+02 +1.3427160426e+02 +2.6166948031e+02 3.5103222317e+02 4.2140000000e+00 0.0000e+00 -1.0000e+00
        5  1    4    4  502    0 +1.6515385267e+02 -8.2111704453e+01 -3.3507166614e+02 3.8250347228e+02 4.2140000000e+00 0.0000e+00 -1.0000e+00
       -5  1    4    4    0  502 +9.6235716721e+01 -1.8649252948e+02 -4.3607162728e+02 4.8395970766e+02 4.2140000000e+00 0.0000e+00 -1.0000e+00
<mgrwt>
<rscale>  0 0.13999995E+04</rscale>
<asrwt>0</asrwt>
<pdfrwt beam="1">  1       21 0.84424092E-01 0.13999995E+04</pdfrwt>
<pdfrwt beam="2">  1       21 0.13737340E+00 0.13999995E+04</pdfrwt>
<totfact> 0.34190819E+02</totfact>
</mgrwt>
<rwgt>
<wgt id='1001'> +2.8343000e+11 </wgt>
<wgt id='1002'> +3.1209282e+11 </wgt>
<wgt id='1003'> +3.1208441e+11 </wgt>
<wgt id='1004'> +3.5226930e+11 </wgt>
<wgt id='1005'> +2.8343000e+11 </wgt>
<wgt id='1006'> +2.8343000e+11 </wgt>
<wgt id='1007'> +3.1209282e+11 </wgt>
<wgt id='1008'> +3.1208441e+11 </wgt>
<wgt id='1009'> +3.5226930e+11 </wgt>
<wgt id='1010'> +2.8343000e+11 </wgt>
<wgt id='1011'> +2.8343000e+11 </wgt>
<wgt id='1012'> +3.1209282e+11 </wgt>
<wgt id='1013'> +3.1208441e+11 </wgt>
<wgt id='1014'> +3.5226930e+11 </wgt>
<wgt id='1015'> +2.8343000e+11 </wgt>
<wgt id='1016'> +2.5455223e+11 </wgt>
<wgt id='1017'> +2.7861691e+11 </wgt>
<wgt id='1018'> +2.7860988e+11 </wgt>
<wgt id='1019'> +3.1208441e+11 </wgt>
<wgt id='1020'> +2.5455223e+11 </wgt>
<wgt id='1021'> +2.5455223e+11 </wgt>
<wgt id='1022'> +2.7861691e+11 </wgt>
<wgt id='1023'> +2.7860988e+11 </wgt>
<wgt id='1024'> +3.1208441e+11 </wgt>
<wgt id='1025'> +2.5455223e+11 </wgt>
<wgt id='1026'> +2.5455223e+11 </wgt>
<wgt id='1027'> +2.7861691e+11 </wgt>
<wgt id='1028'> +2.7860988e+11 </wgt>
<wgt id='1029'> +3.1208441e+11 </wgt>
<wgt id='1030'> +2.5455223e+11 </wgt>
<wgt id='1031'> +3.1786152e+11 </wgt>
<wgt id='1032'> +3.5227946e+11 </wgt>
<wgt id='1033'> +3.5226930e+11 </wgt>
<wgt id='1034'> +4.0115972e+11 </wgt>
<wgt id='1035'> +3.1786152e+11 </wgt>
<wgt id='1036'> +3.1786152e+11 </wgt>
<wgt id='1037'> +3.5227946e+11 </wgt>
<wgt id='1038'> +3.5226930e+11 </wgt>
<wgt id='1039'> +4.0115972e+11 </wgt>
<wgt id='1040'> +3.1786152e+11 </wgt>
<wgt id='1041'> +3.1786152e+11 </wgt>
<wgt id='1042'> +3.5227946e+11 </wgt>
<wgt id='1043'> +3.5226930e+11 </wgt>
<wgt id='1044'> +4.0115972e+11 </wgt>
<wgt id='1045'> +3.1786152e+11 </wgt>
<wgt id='1046'> +2.8343000e+11 </wgt>
<wgt id='1047'> +2.8343000e+11 </wgt>
<wgt id='1048'> +2.8343000e+11 </wgt>
<wgt id='1049'> +2.8245275e+11 </wgt>
<wgt id='1050'> +2.8313968e+11 </wgt>
<wgt id='1051'> +2.8353511e+11 </wgt>
<wgt id='1052'> +2.8429073e+11 </wgt>
<wgt id='1053'> +2.8183807e+11 </wgt>
<wgt id='1054'> +2.8382037e+11 </wgt>
<wgt id='1055'> +2.8226025e+11 </wgt>
<wgt id='1056'> +2.8194928e+11 </wgt>
<wgt id='1057'> +2.8403120e+11 </wgt>
<wgt id='1058'> +2.8299037e+11 </wgt>
<wgt id='1059'> +2.8532378e+11 </wgt>
<wgt id='1060'> +2.8369332e+11 </wgt>
<wgt id='1061'> +2.8410047e+11 </wgt>
<wgt id='1062'> +2.8409914e+11 </wgt>
<wgt id='1063'> +2.8392363e+11 </wgt>
<wgt id='1064'> +2.8445761e+11 </wgt>
<wgt id='1065'> +2.8477692e+11 </wgt>
<wgt id='1066'> +2.8167332e+11 </wgt>
<wgt id='1067'> +2.8033003e+11 </wgt>
<wgt id='1068'> +2.8357085e+11 </wgt>
<wgt id='1069'> +2.8265770e+11 </wgt>
<wgt id='1070'> +2.8361926e+11 </wgt>
<wgt id='1071'> +2.8432251e+11 </wgt>
<wgt id='1072'> +2.8136127e+11 </wgt>
<wgt id='1073'> +2.8395328e+11 </wgt>
<wgt id='1074'> +2.8327144e+11 </wgt>
<wgt id='1075'> +2.8447676e+11 </wgt>
<wgt id='1076'> +2.8254279e+11 </wgt>
<wgt id='1077'> +2.8259812e+11 </wgt>
<wgt id='1078'> +2.8409973e+11 </wgt>
<wgt id='1079'> +2.8196448e+11 </wgt>
<wgt id='1080'> +2.8294353e+11 </wgt>
<wgt id='1081'> +2.8296914e+11 </wgt>
<wgt id='1082'> +2.8210508e+11 </wgt>
<wgt id='1083'> +2.8390822e+11 </wgt>
<wgt id='1084'> +2.8402350e+11 </wgt>
<wgt id='1085'> +2.8281887e+11 </wgt>
<wgt id='1086'> +2.8294118e+11 </wgt>
<wgt id='1087'> +2.8309573e+11 </wgt>
<wgt id='1088'> +2.8294115e+11 </wgt>
<wgt id='1089'> +2.8276948e+11 </wgt>
<wgt id='1090'> +2.8414395e+11 </wgt>
<wgt id='1091'> +2.8352290e+11 </wgt>
<wgt id='1092'> +2.8367775e+11 </wgt>
<wgt id='1093'> +2.8331008e+11 </wgt>
<wgt id='1094'> +2.8283632e+11 </wgt>
<wgt id='1095'> +2.8357205e+11 </wgt>
<wgt id='1096'> +2.8335109e+11 </wgt>
<wgt id='1097'> +2.8302220e+11 </wgt>
<wgt id='1098'> +2.8309019e+11 </wgt>
<wgt id='1099'> +2.8317692e+11 </wgt>
<wgt id='1100'> +2.8401194e+11 </wgt>
<wgt id='1101'> +2.8340929e+11 </wgt>
<wgt id='1102'> +2.8328078e+11 </wgt>
<wgt id='1103'> +2.8308741e+11 </wgt>
<wgt id='1104'> +2.8312488e+11 </wgt>
<wgt id='1105'> +2.8355004e+11 </wgt>
<wgt id='1106'> +2.8374426e+11 </wgt>
<wgt id='1107'> +2.8334385e+11 </wgt>
<wgt id='1108'> +2.8333214e+11 </wgt>
<wgt id='1109'> +2.8321858e+11 </wgt>
<wgt id='1110'> +2.8375057e+11 </wgt>
<wgt id='1111'> +2.8356221e+11 </wgt>
<wgt id='1112'> +2.8339166e+11 </wgt>
<wgt id='1113'> +2.8374228e+11 </wgt>
<wgt id='1114'> +2.8311413e+11 </wgt>
<wgt id='1115'> +2.8321125e+11 </wgt>
<wgt id='1116'> +2.8378243e+11 </wgt>
<wgt id='1117'> +2.8336836e+11 </wgt>
<wgt id='1118'> +2.8353153e+11 </wgt>
<wgt id='1119'> +2.8323058e+11 </wgt>
<wgt id='1120'> +2.8326598e+11 </wgt>
<wgt id='1121'> +2.8348378e+11 </wgt>
<wgt id='1122'> +2.8321515e+11 </wgt>
<wgt id='1123'> +2.8337843e+11 </wgt>
<wgt id='1124'> +2.8337344e+11 </wgt>
<wgt id='1125'> +2.8359102e+11 </wgt>
<wgt id='1126'> +2.8353894e+11 </wgt>
<wgt id='1127'> +2.8332475e+11 </wgt>
<wgt id='1128'> +2.8345618e+11 </wgt>
<wgt id='1129'> +2.8337007e+11 </wgt>
<wgt id='1130'> +2.8346311e+11 </wgt>
<wgt id='1131'> +2.8372627e+11 </wgt>
<wgt id='1132'> +2.8334967e+11 </wgt>
<wgt id='1133'> +2.8350829e+11 </wgt>
<wgt id='1134'> +2.8340768e+11 </wgt>
<wgt id='1135'> +2.8347332e+11 </wgt>
<wgt id='1136'> +2.8338450e+11 </wgt>
<wgt id='1137'> +2.8327386e+11 </wgt>
<wgt id='1138'> +2.8355030e+11 </wgt>
<wgt id='1139'> +2.8347851e+11 </wgt>
<wgt id='1140'> +2.8363559e+11 </wgt>
<wgt id='1141'> +2.8328482e+11 </wgt>
<wgt id='1142'> +2.8350455e+11 </wgt>
<wgt id='1143'> +2.8359909e+11 </wgt>
<wgt id='1144'> +2.8334253e+11 </wgt>
<wgt id='1145'> +2.8356084e+11 </wgt>
<wgt id='1146'> +2.8342186e+11 </wgt>
<wgt id='1147'> +2.8348038e+11 </wgt>
<wgt id='1148'> +2.8343000e+11 </wgt>
<wgt id='1149'> +2.8343000e+11 </wgt>
<wgt id='1150'> +2.9377049e+11 </wgt>
<wgt id='1151'> +2.8010967e+11 </wgt>
<wgt id='1152'> +2.8284996e+11 </wgt>
<wgt id='1153'> +2.8714289e+11 </wgt>
<wgt id='1154'> +2.8606436e+11 </wgt>
<wgt id='1155'> +2.8955269e+11 </wgt>
<wgt id='1156'> +2.7688510e+11 </wgt>
<wgt id='1157'> +2.7570620e+11 </wgt>
<wgt id='1158'> +2.7744441e+11 </wgt>
<wgt id='1159'> +2.9758223e+11 </wgt>
<wgt id='1160'> +2.8266444e+11 </wgt>
<wgt id='1161'> +2.8555800e+11 </wgt>
<wgt id='1162'> +2.7927548e+11 </wgt>
<wgt id='1163'> +2.8647311e+11 </wgt>
<wgt id='1164'> +2.6898717e+11 </wgt>
<wgt id='1165'> +2.7848016e+11 </wgt>
<wgt id='1166'> +2.8430916e+11 </wgt>
<wgt id='1167'> +2.7918869e+11 </wgt>
<wgt id='1168'> +2.7593207e+11 </wgt>
<wgt id='1169'> +2.7578436e+11 </wgt>
<wgt id='1170'> +2.7883365e+11 </wgt>
<wgt id='1171'> +2.7315881e+11 </wgt>
<wgt id='1172'> +2.7677829e+11 </wgt>
<wgt id='1173'> +2.8700570e+11 </wgt>
<wgt id='1174'> +2.7872670e+11 </wgt>
<wgt id='1175'> +2.7614038e+11 </wgt>
<wgt id='1176'> +2.8634409e+11 </wgt>
<wgt id='1177'> +2.7871399e+11 </wgt>
<wgt id='1178'> +2.8308044e+11 </wgt>
<wgt id='1179'> +2.8073525e+11 </wgt>
<wgt id='1180'> +2.8727713e+11 </wgt>
<wgt id='1181'> +2.8003098e+11 </wgt>
<wgt id='1182'> +2.8094066e+11 </wgt>
<wgt id='1183'> +2.9399475e+11 </wgt>
<wgt id='1184'> +2.8012091e+11 </wgt>
<wgt id='1185'> +2.8366852e+11 </wgt>
<wgt id='1186'> +2.7347373e+11 </wgt>
<wgt id='1187'> +2.8509060e+11 </wgt>
<wgt id='1188'> +2.8127677e+11 </wgt>
<wgt id='1189'> +2.8441460e+11 </wgt>
<wgt id='1190'> +2.8325295e+11 </wgt>
<wgt id='1191'> +2.9372181e+11 </wgt>
<wgt id='1192'> +2.9089950e+11 </wgt>
<wgt id='1193'> +2.9410187e+11 </wgt>
<wgt id='1194'> +2.8350918e+11 </wgt>
<wgt id='1195'> +2.8366519e+11 </wgt>
<wgt id='1196'> +2.9207511e+11 </wgt>
<wgt id='1197'> +2.9303917e+11 </wgt>
<wgt id='1198'> +2.7812739e+11 </wgt>
<wgt id='1199'> +2.8437226e+11 </wgt>
<wgt id='1200'> +2.8360203e+11 </wgt>
<wgt id='1201'> +2.7953951e+11 </wgt>
<wgt id='1202'> +2.8804566e+11 </wgt>
<wgt id='1203'> +2.7851984e+11 </wgt>
<wgt id='1204'> +2.8665953e+11 </wgt>
<wgt id='1205'> +2.8444127e+11 </wgt>
<wgt id='1206'> +2.7735119e+11 </wgt>
<wgt id='1207'> +2.9237596e+11 </wgt>
<wgt id='1208'> +2.7204918e+11 </wgt>
<wgt id='1209'> +2.7994760e+11 </wgt>
<wgt id='1210'> +2.8178048e+11 </wgt>
<wgt id='1211'> +2.8575430e+11 </wgt>
<wgt id='1212'> +2.8333939e+11 </wgt>
<wgt id='1213'> +2.9217428e+11 </wgt>
<wgt id='1214'> +2.7598337e+11 </wgt>
<wgt id='1215'> +2.9017577e+11 </wgt>
<wgt id='1216'> +2.8518879e+11 </wgt>
<wgt id='1217'> +2.7619643e+11 </wgt>
<wgt id='1218'> +2.8466604e+11 </wgt>
<wgt id='1219'> +2.9405516e+11 </wgt>
<wgt id='1220'> +2.7771689e+11 </wgt>
<wgt id='1221'> +2.7552336e+11 </wgt>
<wgt id='1222'> +2.7975898e+11 </wgt>
<wgt id='1223'> +2.7273845e+11 </wgt>
<wgt id='1224'> +2.8337467e+11 </wgt>
<wgt id='1225'> +2.8832466e+11 </wgt>
<wgt id='1226'> +2.8942988e+11 </wgt>
<wgt id='1227'> +2.7510579e+11 </wgt>
<wgt id='1228'> +2.8155985e+11 </wgt>
<wgt id='1229'> +3.0242591e+11 </wgt>
<wgt id='1230'> +2.9289864e+11 </wgt>
<wgt id='1231'> +2.7848016e+11 </wgt>
<wgt id='1232'> +2.8840935e+11 </wgt>
<wgt id='1233'> +2.7753373e+11 </wgt>
<wgt id='1234'> +2.7654333e+11 </wgt>
<wgt id='1235'> +3.0179971e+11 </wgt>
<wgt id='1236'> +2.7671290e+11 </wgt>
<wgt id='1237'> +2.8934844e+11 </wgt>
<wgt id='1238'> +2.8769425e+11 </wgt>
<wgt id='1239'> +2.9017932e+11 </wgt>
<wgt id='1240'> +2.8361455e+11 </wgt>
<wgt id='1241'> +2.8266921e+11 </wgt>
<wgt id='1242'> +2.8036730e+11 </wgt>
<wgt id='1243'> +2.8800003e+11 </wgt>
<wgt id='1244'> +2.8214710e+11 </wgt>
<wgt id='1245'> +2.8113752e+11 </wgt>
<wgt id='1246'> +3.0639344e+11 </wgt>
<wgt id='1247'> +2.8290985e+11 </wgt>
<wgt id='1248'> +2.7460068e+11 </wgt>
<wgt id='1249'> +2.7699499e+11 </wgt>
<wgt id='1250'> +2.9230952e+11 </wgt>
<wgt id='1251'> +2.9810522e+11 </wgt>
<wgt id='1252'> +2.8634401e+11 </wgt>
<wgt id='1253'> +2.8510285e+11 </wgt>
<wgt id='1254'> +2.8759434e+11 </wgt>
<wgt id='1255'> +2.9778741e+11 </wgt>
<wgt id='1256'> +2.9625566e+11 </wgt>
<wgt id='1257'> +2.8813707e+11 </wgt>
<wgt id='1258'> +2.9760426e+11 </wgt>
<wgt id='1259'> +2.9490813e+11 </wgt>
<wgt id='1260'> +3.2442470e+11 </wgt>
<wgt id='1261'> +3.1267380e+11 </wgt>
<wgt id='1262'> +2.8929168e+11 </wgt>
<wgt id='1263'> +2.9615955e+11 </wgt>
<wgt id='1264'> +2.9828168e+11 </wgt>
<wgt id='1265'> +2.9684034e+11 </wgt>
<wgt id='1266'> +2.9501152e+11 </wgt>
<wgt id='1267'> +3.1993765e+11 </wgt>
<wgt id='1268'> +2.9228296e+11 </wgt>
<wgt id='1269'> +2.8614962e+11 </wgt>
<wgt id='1270'> +2.9280332e+11 </wgt>
<wgt id='1271'> +2.7599317e+11 </wgt>
<wgt id='1272'> +2.9221482e+11 </wgt>
<wgt id='1273'> +2.9051351e+11 </wgt>
<wgt id='1274'> +2.8619230e+11 </wgt>
<wgt id='1275'> +2.9668765e+11 </wgt>
<wgt id='1276'> +2.9559580e+11 </wgt>
<wgt id='1277'> +2.9088536e+11 </wgt>
<wgt id='1278'> +2.8857605e+11 </wgt>
<wgt id='1279'> +2.7990820e+11 </wgt>
<wgt id='1280'> +2.9085739e+11 </wgt>
<wgt id='1281'> +2.8454451e+11 </wgt>
<wgt id='1282'> +2.9533863e+11 </wgt>
<wgt id='1283'> +2.9716866e+11 </wgt>
<wgt id='1284'> +3.1270261e+11 </wgt>
<wgt id='1285'> +3.0711367e+11 </wgt>
<wgt id='1286'> +3.2764672e+11 </wgt>
<wgt id='1287'> +3.0246485e+11 </wgt>
<wgt id='1288'> +3.2386624e+11 </wgt>
<wgt id='1289'> +3.1203612e+11 </wgt>
<wgt id='1290'> +3.1047040e+11 </wgt>
<wgt id='1291'> +2.7692491e+11 </wgt>
<wgt id='1292'> +2.9729191e+11 </wgt>
<wgt id='1293'> +2.9977886e+11 </wgt>
<wgt id='1294'> +3.1441747e+11 </wgt>
<wgt id='1295'> +3.0013904e+11 </wgt>
<wgt id='1296'> +3.1626209e+11 </wgt>
<wgt id='1297'> +2.9378840e+11 </wgt>
<wgt id='1298'> +2.8666137e+11 </wgt>
<wgt id='1299'> +2.9848632e+11 </wgt>
<wgt id='1300'> +2.8715446e+11 </wgt>
<wgt id='1301'> +2.7925199e+11 </wgt>
<wgt id='1302'> +2.7723096e+11 </wgt>
<wgt id='1303'> +2.9803554e+11 </wgt>
<wgt id='1304'> +3.0807332e+11 </wgt>
<wgt id='1305'> +2.9736491e+11 </wgt>
<wgt id='1306'> +3.0428765e+11 </wgt>
<wgt id='1307'> +3.0007845e+11 </wgt>
<wgt id='1308'> +3.2501832e+11 </wgt>
<wgt id='1309'> +2.9547663e+11 </wgt>
<wgt id='1310'> +3.0122139e+11 </wgt>
<wgt id='1311'> +3.0530239e+11 </wgt>
<wgt id='1312'> +2.9975146e+11 </wgt>
<wgt id='1313'> +2.9682614e+11 </wgt>
<wgt id='1314'> +3.0152779e+11 </wgt>
<wgt id='1315'> +2.8443370e+11 </wgt>
<wgt id='1316'> +2.9783330e+11 </wgt>
<wgt id='1317'> +3.0151599e+11 </wgt>
<wgt id='1318'> +2.8691042e+11 </wgt>
<wgt id='1319'> +3.0425512e+11 </wgt>
<wgt id='1320'> +3.0931265e+11 </wgt>
<wgt id='1321'> +2.9348574e+11 </wgt>
<wgt id='1322'> +2.9748022e+11 </wgt>
<wgt id='1323'> +2.9628338e+11 </wgt>
<wgt id='1324'> +3.0091963e+11 </wgt>
<wgt id='1325'> +3.1005026e+11 </wgt>
<wgt id='1326'> +3.0303221e+11 </wgt>
<wgt id='1327'> +2.9576551e+11 </wgt>
<wgt id='1328'> +3.0004708e+11 </wgt>
<wgt id='1329'> +2.9678104e+11 </wgt>
<wgt id='1330'> +2.8878842e+11 </wgt>
<wgt id='1331'> +3.1866327e+11 </wgt>
<wgt id='1332'> +2.8656207e+11 </wgt>
<wgt id='1333'> +2.9993453e+11 </wgt>
<wgt id='1334'> +3.1304008e+11 </wgt>
<wgt id='1335'> +2.9169024e+11 </wgt>
<wgt id='1336'> +3.0337507e+11 </wgt>
<wgt id='1337'> +3.0744858e+11 </wgt>
<wgt id='1338'> +2.8848346e+11 </wgt>
<wgt id='1339'> +3.1847323e+11 </wgt>
<wgt id='1340'> +3.0113309e+11 </wgt>
<wgt id='1341'> +3.0613492e+11 </wgt>
<wgt id='1342'> +3.1236392e+11 </wgt>
<wgt id='1343'> +3.0882735e+11 </wgt>
<wgt id='1344'> +3.0484531e+11 </wgt>
<wgt id='1345'> +2.7649066e+11 </wgt>
<wgt id='1346'> +2.9922109e+11 </wgt>
<wgt id='1347'> +2.8652921e+11 </wgt>
<wgt id='1348'> +2.8718658e+11 </wgt>
<wgt id='1349'> +2.8795419e+11 </wgt>
<wgt id='1350'> +3.0045721e+11 </wgt>
<wgt id='1351'> +2.9478681e+11 </wgt>
<wgt id='1352'> +2.9994918e+11 </wgt>
<wgt id='1353'> +2.9661515e+11 </wgt>
<wgt id='1354'> +3.0615674e+11 </wgt>
<wgt id='1355'> +2.7518146e+11 </wgt>
<wgt id='1356'> +2.7790852e+11 </wgt>
<wgt id='1357'> +2.7586776e+11 </wgt>
<wgt id='1358'> +2.7276473e+11 </wgt>
<wgt id='1359'> +2.7576141e+11 </wgt>
<wgt id='1360'> +2.6880827e+11 </wgt>
<wgt id='1361'> +2.7499540e+11 </wgt>
<wgt id='1362'> +2.7807282e+11 </wgt>
<wgt id='1363'> +2.6965520e+11 </wgt>
<wgt id='1364'> +2.8098453e+11 </wgt>
<wgt id='1365'> +2.7288992e+11 </wgt>
<wgt id='1366'> +2.7452185e+11 </wgt>
<wgt id='1367'> +2.7593662e+11 </wgt>
<wgt id='1368'> +2.7529628e+11 </wgt>
<wgt id='1369'> +2.7894758e+11 </wgt>
<wgt id='1370'> +2.7330735e+11 </wgt>
<wgt id='1371'> +2.7357970e+11 </wgt>
<wgt id='1372'> +2.7927588e+11 </wgt>
<wgt id='1373'> +2.7868091e+11 </wgt>
<wgt id='1374'> +2.6712806e+11 </wgt>
<wgt id='1375'> +2.7451507e+11 </wgt>
<wgt id='1376'> +2.7571367e+11 </wgt>
<wgt id='1377'> +2.7535612e+11 </wgt>
<wgt id='1378'> +2.7165620e+11 </wgt>
<wgt id='1379'> +2.7365623e+11 </wgt>
<wgt id='1380'> +2.7337177e+11 </wgt>
<wgt id='1381'> +2.8040274e+11 </wgt>
<wgt id='1382'> +2.7470480e+11 </wgt>
<wgt id='1383'> +2.7469152e+11 </wgt>
<wgt id='1384'> +2.7322046e+11 </wgt>
<wgt id='1385'> +2.7320985e+11 </wgt>
<wgt id='1386'> +2.7652533e+11 </wgt>
<wgt id='1387'> +2.7402459e+11 </wgt>
<wgt id='1388'> +2.7122800e+11 </wgt>
<wgt id='1389'> +2.7373747e+11 </wgt>
<wgt id='1390'> +2.7474009e+11 </wgt>
<wgt id='1391'> +2.7295738e+11 </wgt>
<wgt id='1392'> +2.7295904e+11 </wgt>
<wgt id='1393'> +2.7364219e+11 </wgt>
<wgt id='1394'> +2.7303886e+11 </wgt>
<wgt id='1395'> +2.7081825e+11 </wgt>
<wgt id='1396'> +2.7609110e+11 </wgt>
<wgt id='1397'> +2.7587299e+11 </wgt>
<wgt id='1398'> +2.7604894e+11 </wgt>
<wgt id='1399'> +2.7120289e+11 </wgt>
<wgt id='1400'> +2.7192719e+11 </wgt>
<wgt id='1401'> +2.7416095e+11 </wgt>
<wgt id='1402'> +2.7831951e+11 </wgt>
<wgt id='1403'> +2.7898067e+11 </wgt>
<wgt id='1404'> +2.7386002e+11 </wgt>
<wgt id='1405'> +2.8130036e+11 </wgt>
<wgt id='1406'> +2.7533482e+11 </wgt>
<wgt id='1407'> +2.7574825e+11 </wgt>
<wgt id='1408'> +2.7869989e+11 </wgt>
<wgt id='1409'> +2.7274888e+11 </wgt>
<wgt id='1410'> +2.7186826e+11 </wgt>
<wgt id='1411'> +2.7487830e+11 </wgt>
<wgt id='1412'> +2.7378890e+11 </wgt>
<wgt id='1413'> +2.7231881e+11 </wgt>
<wgt id='1414'> +2.7713417e+11 </wgt>
<wgt id='1415'> +2.8039434e+11 </wgt>
<wgt id='1416'> +2.7811679e+11 </wgt>
<wgt id='1417'> +2.6917531e+11 </wgt>
<wgt id='1418'> +2.7649771e+11 </wgt>
<wgt id='1419'> +2.7883028e+11 </wgt>
<wgt id='1420'> +2.7422188e+11 </wgt>
<wgt id='1421'> +2.8123094e+11 </wgt>
<wgt id='1422'> +2.6786692e+11 </wgt>
<wgt id='1423'> +2.8033810e+11 </wgt>
<wgt id='1424'> +2.7629674e+11 </wgt>
<wgt id='1425'> +2.7554133e+11 </wgt>
<wgt id='1426'> +2.7834503e+11 </wgt>
<wgt id='1427'> +2.7505019e+11 </wgt>
<wgt id='1428'> +2.7492400e+11 </wgt>
<wgt id='1429'> +2.7192038e+11 </wgt>
<wgt id='1430'> +2.7065803e+11 </wgt>
<wgt id='1431'> +2.7030277e+11 </wgt>
<wgt id='1432'> +2.7654205e+11 </wgt>
<wgt id='1433'> +2.7527349e+11 </wgt>
<wgt id='1434'> +2.8214836e+11 </wgt>
<wgt id='1435'> +2.7424022e+11 </wgt>
<wgt id='1436'> +2.7914799e+11 </wgt>
<wgt id='1437'> +2.7727763e+11 </wgt>
<wgt id='1438'> +2.7352358e+11 </wgt>
<wgt id='1439'> +2.7657983e+11 </wgt>
<wgt id='1440'> +2.7933603e+11 </wgt>
<wgt id='1441'> +2.7451828e+11 </wgt>
<wgt id='1442'> +2.8219875e+11 </wgt>
<wgt id='1443'> +2.7323936e+11 </wgt>
<wgt id='1444'> +2.7431557e+11 </wgt>
<wgt id='1445'> +2.7770587e+11 </wgt>
<wgt id='1446'> +2.7810917e+11 </wgt>
<wgt id='1447'> +2.7154664e+11 </wgt>
<wgt id='1448'> +2.7755691e+11 </wgt>
<wgt id='1449'> +2.7692132e+11 </wgt>
<wgt id='1450'> +2.7361956e+11 </wgt>
<wgt id='1451'> +2.7652393e+11 </wgt>
<wgt id='1452'> +2.7807026e+11 </wgt>
<wgt id='1453'> +2.7929307e+11 </wgt>
<wgt id='1454'> +2.6830782e+11 </wgt>
<wgt id='1455'> +2.7434054e+11 </wgt>
<wgt id='1456'> +2.7437449e+11 </wgt>
<wgt id='1457'> +2.7400116e+11 </wgt>
<wgt id='1458'> +2.7760244e+11 </wgt>
<wgt id='1459'> +3.0533611e+11 </wgt>
<wgt id='1460'> +3.0062533e+11 </wgt>
<wgt id='1461'> +3.4920218e+11 </wgt>
<wgt id='1462'> +2.9878723e+11 </wgt>
<wgt id='1463'> +2.9903225e+11 </wgt>
<wgt id='1464'> +2.9847300e+11 </wgt>
<wgt id='1465'> +2.9884927e+11 </wgt>
<wgt id='1466'> +2.9873055e+11 </wgt>
<wgt id='1467'> +2.9894297e+11 </wgt>
<wgt id='1468'> +2.9853169e+11 </wgt>
<wgt id='1469'> +2.9834093e+11 </wgt>
<wgt id='1470'> +2.9914972e+11 </wgt>
<wgt id='1471'> +2.9926000e+11 </wgt>
<wgt id='1472'> +2.9830029e+11 </wgt>
<wgt id='1473'> +2.9994035e+11 </wgt>
<wgt id='1474'> +2.9767968e+11 </wgt>
<wgt id='1475'> +2.9988636e+11 </wgt>
<wgt id='1476'> +2.9800798e+11 </wgt>
<wgt id='1477'> +2.9821924e+11 </wgt>
<wgt id='1478'> +3.0011405e+11 </wgt>
<wgt id='1479'> +2.9824472e+11 </wgt>
<wgt id='1480'> +2.9916651e+11 </wgt>
<wgt id='1481'> +2.9835581e+11 </wgt>
<wgt id='1482'> +2.9936919e+11 </wgt>
<wgt id='1483'> +2.9888155e+11 </wgt>
<wgt id='1484'> +2.9865350e+11 </wgt>
<wgt id='1485'> +2.9899001e+11 </wgt>
<wgt id='1486'> +2.9829893e+11 </wgt>
<wgt id='1487'> +2.9904119e+11 </wgt>
<wgt id='1488'> +2.9846833e+11 </wgt>
<wgt id='1489'> +2.9843427e+11 </wgt>
<wgt id='1490'> +2.9974412e+11 </wgt>
<wgt id='1491'> +3.0369921e+11 </wgt>
<wgt id='1492'> +2.9604623e+11 </wgt>
<wgt id='1493'> +2.9528196e+11 </wgt>
<wgt id='1494'> +3.0977423e+11 </wgt>
<wgt id='1495'> +2.9813564e+11 </wgt>
<wgt id='1496'> +2.9948620e+11 </wgt>
<wgt id='1497'> +2.9898554e+11 </wgt>
<wgt id='1498'> +2.9851616e+11 </wgt>
<wgt id='1499'> +3.0066861e+11 </wgt>
<wgt id='1500'> +2.9775817e+11 </wgt>
<wgt id='1501'> +2.9924320e+11 </wgt>
<wgt id='1502'> +2.9757892e+11 </wgt>
<wgt id='1503'> +2.9557897e+11 </wgt>
<wgt id='1504'> +3.0220952e+11 </wgt>
<wgt id='1505'> +2.9977973e+11 </wgt>
<wgt id='1506'> +2.9783097e+11 </wgt>
<wgt id='1507'> +3.0026349e+11 </wgt>
<wgt id='1508'> +2.9765733e+11 </wgt>
<wgt id='1509'> +2.9937744e+11 </wgt>
<wgt id='1510'> +2.9625319e+11 </wgt>
<wgt id='1511'> +2.9990762e+11 </wgt>
<wgt id='1512'> +2.9846390e+11 </wgt>
<wgt id='1513'> +2.9870366e+11 </wgt>
<wgt id='1514'> +2.9886846e+11 </wgt>
<wgt id='1515'> +3.0129736e+11 </wgt>
<wgt id='1516'> +2.9917360e+11 </wgt>
<wgt id='1517'> +2.9840423e+11 </wgt>
<wgt id='1518'> +2.9912338e+11 </wgt>
<wgt id='1519'> +2.9713232e+11 </wgt>
<wgt id='1520'> +2.9996451e+11 </wgt>
<wgt id='1521'> +2.9798402e+11 </wgt>
<wgt id='1522'> +2.9926557e+11 </wgt>
<wgt id='1523'> +3.0012501e+11 </wgt>
<wgt id='1524'> +3.0016930e+11 </wgt>
<wgt id='1525'> +2.9997554e+11 </wgt>
<wgt id='1526'> +2.9962539e+11 </wgt>
<wgt id='1527'> +2.9878723e+11 </wgt>
<wgt id='1528'> +2.9853568e+11 </wgt>
<wgt id='1529'> +2.9853178e+11 </wgt>
<wgt id='1530'> +2.9480441e+11 </wgt>
<wgt id='1531'> +2.9633180e+11 </wgt>
<wgt id='1532'> +2.9394611e+11 </wgt>
<wgt id='1533'> +2.9177144e+11 </wgt>
<wgt id='1534'> +2.9472518e+11 </wgt>
<wgt id='1535'> +2.9873339e+11 </wgt>
<wgt id='1536'> +2.9364037e+11 </wgt>
<wgt id='1537'> +2.9624101e+11 </wgt>
<wgt id='1538'> +2.9319095e+11 </wgt>
<wgt id='1539'> +3.0235757e+11 </wgt>
<wgt id='1540'> +2.9561024e+11 </wgt>
<wgt id='1541'> +2.9674962e+11 </wgt>
<wgt id='1542'> +2.9628928e+11 </wgt>
<wgt id='1543'> +2.9749771e+11 </wgt>
<wgt id='1544'> +2.9441747e+11 </wgt>
<wgt id='1545'> +2.9435429e+11 </wgt>
<wgt id='1546'> +2.9240103e+11 </wgt>
<wgt id='1547'> +2.9863665e+11 </wgt>
<wgt id='1548'> +2.9438912e+11 </wgt>
<wgt id='1549'> +2.9289936e+11 </wgt>
<wgt id='1550'> +2.9711652e+11 </wgt>
<wgt id='1551'> +2.9693559e+11 </wgt>
<wgt id='1552'> +2.9574381e+11 </wgt>
<wgt id='1553'> +2.9836886e+11 </wgt>
<wgt id='1554'> +2.9619657e+11 </wgt>
<wgt id='1555'> +2.9697136e+11 </wgt>
<wgt id='1556'> +2.9872278e+11 </wgt>
<wgt id='1557'> +2.9528697e+11 </wgt>
<wgt id='1558'> +2.9636828e+11 </wgt>
<wgt id='1559'> +2.9422833e+11 </wgt>
<wgt id='1560'> +2.9508591e+11 </wgt>
<wgt id='1561'> +2.9268619e+11 </wgt>
<wgt id='1562'> +2.9495603e+11 </wgt>
<wgt id='1563'> +2.9632254e+11 </wgt>
<wgt id='1564'> +2.9590504e+11 </wgt>
<wgt id='1565'> +2.9843675e+11 </wgt>
<wgt id='1566'> +2.9641545e+11 </wgt>
<wgt id='1567'> +2.9980107e+11 </wgt>
<wgt id='1568'> +2.9626686e+11 </wgt>
<wgt id='1569'> +2.9596851e+11 </wgt>
<wgt id='1570'> +3.0141536e+11 </wgt>
<wgt id='1571'> +2.9614294e+11 </wgt>
<wgt id='1572'> +2.9823916e+11 </wgt>
<wgt id='1573'> +2.9943984e+11 </wgt>
<wgt id='1574'> +2.6712611e+11 </wgt>
<wgt id='1575'> +2.6719868e+11 </wgt>
<wgt id='1576'> +2.6705815e+11 </wgt>
<wgt id='1577'> +2.6714451e+11 </wgt>
<wgt id='1578'> +2.6773957e+11 </wgt>
<wgt id='1579'> +2.6798599e+11 </wgt>
<wgt id='1580'> +2.6775892e+11 </wgt>
<wgt id='1581'> +2.6650787e+11 </wgt>
<wgt id='1582'> +2.6620321e+11 </wgt>
<wgt id='1583'> +2.6667340e+11 </wgt>
<wgt id='1584'> +2.6770963e+11 </wgt>
<wgt id='1585'> +2.6732007e+11 </wgt>
<wgt id='1586'> +2.6611726e+11 </wgt>
<wgt id='1587'> +2.6636715e+11 </wgt>
<wgt id='1588'> +2.6586677e+11 </wgt>
<wgt id='1589'> +2.6686570e+11 </wgt>
<wgt id='1590'> +2.6694354e+11 </wgt>
<wgt id='1591'> +2.6719518e+11 </wgt>
<wgt id='1592'> +2.6609445e+11 </wgt>
<wgt id='1593'> +2.6623841e+11 </wgt>
<wgt id='1594'> +2.6796125e+11 </wgt>
<wgt id='1595'> +2.6486074e+11 </wgt>
<wgt id='1596'> +2.7077001e+11 </wgt>
<wgt id='1597'> +2.6887229e+11 </wgt>
<wgt id='1598'> +2.6908744e+11 </wgt>
<wgt id='1599'> +2.6435573e+11 </wgt>
<wgt id='1600'> +2.7159074e+11 </wgt>
<wgt id='1601'> +2.6926641e+11 </wgt>
<wgt id='1602'> +2.6718119e+11 </wgt>
<wgt id='1603'> +2.7793680e+11 </wgt>
<wgt id='1604'> +2.6709908e+11 </wgt>
</rwgt>
</event>
<event>
 9      1 +2.8343000e+11 1.40000000e+03 7.81738600e-03 7.88881100e-02
       21 -1    0    0  504  503 +0.0000000000e+00 +0.0000000000e+00 +4.8847789580e+02 4.8847789580e+02 0.0000000000e+00 0.0000e+00 -1.0000e+00
       21 -1    0    0  503  504 -0.0000000000e+00 -0.0000000000e+00 -1.0031164446e+03 1.0031164446e+03 0.0000000000e+00 0.0000e+00 -1.0000e+00
       45  2    1    2    0    0 +0.0000000000e+00 +1.4210854715e-14 -5.1463854884e+02 1.4915943404e+03 1.4000003002e+03 0.0000e+00 0.0000e+00
       25  2    3    3    0    0 -6.8867988124e+02 -6.2054817084e+01 -2.5435786405e+02 7.4729805620e+02 1.2500273058e+02 0.0000e+00 0.0000e+00
       35  2    3    3    0    0 +6.8867988124e+02 +6.2054817084e+01 -2.6028068479e+02 7.4429628424e+02 9.0000803940e+01 0.0000e+00 0.0000e+00
        5  1    5    5  501    0 +3.7664083334e+02 -1.0720215634e+01 -1.4486779966e+02 4.0370493871e+02 4.2140000000e+00 0.0000e+00 1.0000e+00
       -5  1    5    5    0  501 +3.1203904790e+02 +7.2775032718e+01 -1.1541288513e+02 3.4059134553e+02 4.2140000000e+00 0.0000e+00 1.0000e+00
        5  1    4    4  502    0 -5.2614131842e+02 -8.7698514664e+01 -2.3004949069e+02 5.8090984015e+02 4.2140000000e+00 0.0000e+00 -1.0000e+00
       -5  1    4    4    0  502 -1.6253856282e+02 +2.5643697580e+01 -2.4308373361e+01 1.6638821605e+02 4.2140000000e+00 0.0000e+00 -1.0000e+00
<mgrwt>
<rscale>  0 0.14000003E+04</rscale>
<asrwt>0</asrwt>
<pdfrwt beam="1">  1       21 0.75150446E-01 0.14000003E+04</pdfrwt>
<pdfrwt beam="2">  1       21 0.15432561E+00 0.14000003E+04</pdfrwt>
<totfact> 0.32143876E+02</totfact>
</mgrwt>
<rwgt>
<wgt id='1001'> +2.8343000e+11 </wgt>
<wgt id='1002'> +2.8358429e+11 </wgt>
<wgt id='1003'> +2.8358396e+11 </wgt>
<wgt id='1004'> +3.1833706e+11 </wgt>
<wgt id='1005'> +2.8343000e+11 </wgt>
<wgt id='1006'> +2.8343000e+11 </wgt>
<wgt id='1007'> +2.8358429e+11 </wgt>
<wgt id='1008'> +2.8358396e+11 </wgt>
<wgt id='1009'> +3.1833706e+11 </wgt>
<wgt id='1010'> +2.8343000e+11 </wgt>
<wgt id='1011'> +2.8343000e+11 </wgt>
<wgt id='1012'> +2.8358429e+11 </wgt>
<wgt id='1013'> +2.8358396e+11 </wgt>
<wgt id='1014'> +3.1833706e+11 </wgt>
<wgt id='1015'> +2.8343000e+11 </wgt>
<wgt id='1016'> +2.5433414e+11 </wgt>
<wgt id='1017'> +2.5446469e+11 </wgt>
<wgt id='1018'> +2.5446442e+11 </wgt>
<wgt id='1019'> +2.8358396e+11 </wgt>
<wgt id='1020'> +2.5433414e+11 </wgt>
<wgt id='1021'> +2.5433414e+11 </wgt>
<wgt id='1022'> +2.5446469e+11 </wgt>
<wgt id='1023'> +2.5446442e+11 </wgt>
<wgt id='1024'> +2.8358396e+11 </wgt>
<wgt id='1025'> +2.5433414e+11 </wgt>
<wgt id='1026'> +2.5433414e+11 </wgt>
<wgt id='1027'> +2.5446469e+11 </wgt>
<wgt id='1028'> +2.5446442e+11 </wgt>
<wgt id='1029'> +2.8358396e+11 </wgt>
<wgt id='1030'> +2.5433414e+11 </wgt>
<wgt id='1031'> +3.1815214e+11 </wgt>
<wgt id='1032'> +3.1833745e+11 </wgt>
<wgt id='1033'> +3.1833706e+11 </wgt>
<wgt id='1034'> +3.6016623e+11 </wgt>
<wgt id='1035'> +3.1815214e+11 </wgt>
<wgt id='1036'> +3.1815214e+11 </wgt>
<wgt id='1037'> +3.1833745e+11 </wgt>
<wgt id='1038'> +3.1833706e+11 </wgt>
<wgt id='1039'> +3.6016623e+11 </wgt>
<wgt id='1040'> +3.1815214e+11 </wgt>
<wgt id='1041'> +3.1815214e+11 </wgt>
<wgt id='1042'> +3.1833745e+11 </wgt>
<wgt id='1043'> +3.1833706e+11 </wgt>
<wgt id='1044'> +3.6016623e+11 </wgt>
<wgt id='1045'> +3.1815214e+11 </wgt>
<wgt id='1046'> +2.8343000e+11 </wgt>
<wgt id='1047'> +2.8343000e+11 </wgt>
<wgt id='1048'> +2.8343000e+11 </wgt>
<wgt id='1049'> +2.8262771e+11 </wgt>
<wgt id='1050'> +2.8321659e+11 </wgt>
<wgt id='1051'> +2.8336615e+11 </wgt>
<wgt id='1052'> +2.8434109e+11 </wgt>
<wgt id='1053'> +2.8176347e+11 </wgt>
<wgt id='1054'> +2.8375333e+11 </wgt>
<wgt id='1055'> +2.8224878e+11 </wgt>
<wgt id='1056'> +2.8203935e+11 </wgt>
<wgt id='1057'> +2.8382951e+11 </wgt>
<wgt id='1058'> +2.8291913e+11 </wgt>
<wgt id='1059'> +2.8523490e+11 </wgt>
<wgt id='1060'> +2.8375176e+11 </wgt>
<wgt id='1061'> +2.8401675e+11 </wgt>
<wgt id='1062'> +2.8418626e+11 </wgt>
<wgt id='1063'> +2.8419982e+11 </wgt>
<wgt id='1064'> +2.8423403e+11 </wgt>
<wgt id='1065'> +2.8470235e+11 </wgt>
<wgt id='1066'> +2.8142545e+11 </wgt>
<wgt id='1067'> +2.8093857e+11 </wgt>
<wgt id='1068'> +2.8336650e+11 </wgt>
<wgt id='1069'> +2.8259233e+11 </wgt>
<wgt id='1070'> +2.8377863e+11 </wgt>
<wgt id='1071'> +2.8376830e+11 </wgt>
<wgt id='1072'> +2.8170273e+11 </wgt>
<wgt id='1073'> +2.8371933e+11 </wgt>
<wgt id='1074'> +2.8334067e+11 </wgt>
<wgt id='1075'> +2.8449852e+11 </wgt>
<wgt id='1076'> +2.8196840e+11 </wgt>
<wgt id='1077'> +2.8228787e+11 </wgt>
<wgt id='1078'> +2.8409022e+11 </wgt>
<wgt id='1079'> +2.8210314e+11 </wgt>
<wgt id='1080'> +2.8309877e+11 </wgt>
<wgt id='1081'> +2.8294586e+11 </wgt>
<wgt id='1082'> +2.8216595e+11 </wgt>
<wgt id='1083'> +2.8383556e+11 </wgt>
<wgt id='1084'> +2.8395092e+11 </wgt>
<wgt id='1085'> +2.8276805e+11 </wgt>
<wgt id='1086'> +2.8305540e+11 </wgt>
<wgt id='1087'> +2.8311420e+11 </wgt>
<wgt id='1088'> +2.8293121e+11 </wgt>
<wgt id='1089'> +2.8269849e+11 </wgt>
<wgt id='1090'> +2.8413575e+11 </wgt>
<wgt id='1091'> +2.8352079e+11 </wgt>
<wgt id='1092'> +2.8373609e+11 </wgt>
<wgt id='1093'> +2.8332881e+11 </wgt>
<wgt id='1094'> +2.8277800e+11 </wgt>
<wgt id='1095'> +2.8360819e+11 </wgt>
<wgt id='1096'> +2.8338177e+11 </wgt>
<wgt id='1097'> +2.8301347e+11 </wgt>
<wgt id='1098'> +2.8309678e+11 </wgt>
<wgt id='1099'> +2.8315804e+11 </wgt>
<wgt id='1100'> +2.8402866e+11 </wgt>
<wgt id='1101'> +2.8343721e+11 </wgt>
<wgt id='1102'> +2.8330064e+11 </wgt>
<wgt id='1103'> +2.8301568e+11 </wgt>
<wgt id='1104'> +2.8315957e+11 </wgt>
<wgt id='1105'> +2.8354019e+11 </wgt>
<wgt id='1106'> +2.8375616e+11 </wgt>
<wgt id='1107'> +2.8340504e+11 </wgt>
<wgt id='1108'> +2.8330083e+11 </wgt>
<wgt id='1109'> +2.8321812e+11 </wgt>
<wgt id='1110'> +2.8373608e+11 </wgt>
<wgt id='1111'> +2.8356664e+11 </wgt>
<wgt id='1112'> +2.8338518e+11 </wgt>
<wgt id='1113'> +2.8374879e+11 </wgt>
<wgt id='1114'> +2.8311470e+11 </wgt>
<wgt id='1115'> +2.8316745e+11 </wgt>
<wgt id='1116'> +2.8384162e+11 </wgt>
<wgt id='1117'> +2.8336479e+11 </wgt>
<wgt id='1118'> +2.8356791e+11 </wgt>
<wgt id='1119'> +2.8318981e+11 </wgt>
<wgt id='1120'> +2.8323927e+11 </wgt>
<wgt id='1121'> +2.8350055e+11 </wgt>
<wgt id='1122'> +2.8319346e+11 </wgt>
<wgt id='1123'> +2.8337331e+11 </wgt>
<wgt id='1124'> +2.8338928e+11 </wgt>
<wgt id='1125'> +2.8359855e+11 </wgt>
<wgt id='1126'> +2.8354065e+11 </wgt>
<wgt id='1127'> +2.8331599e+11 </wgt>
<wgt id='1128'> +2.8344142e+11 </wgt>
<wgt id='1129'> +2.8335477e+11 </wgt>
<wgt id='1130'> +2.8346830e+11 </wgt>
<wgt id='1131'> +2.8376868e+11 </wgt>
<wgt id='1132'> +2.8334976e+11 </wgt>
<wgt id='1133'> +2.8352200e+11 </wgt>
<wgt id='1134'> +2.8341738e+11 </wgt>
<wgt id='1135'> +2.8346864e+11 </wgt>
<wgt id='1136'> +2.8337291e+11 </wgt>
<wgt id='1137'> +2.8326442e+11 </wgt>
<wgt id='1138'> +2.8355601e+11 </wgt>
<wgt id='1139'> +2.8348552e+11 </wgt>
<wgt id='1140'> +2.8364783e+11 </wgt>
<wgt id='1141'> +2.8326588e+11 </wgt>
<wgt id='1142'> +2.8350097e+11 </wgt>
<wgt id='1143'> +2.8359836e+11 </wgt>
<wgt id='1144'> +2.8333627e+11 </wgt>
<wgt id='1145'> +2.8356541e+11 </wgt>
<wgt id='1146'> +2.8343932e+11 </wgt>
<wgt id='1147'> +2.8348064e+11 </wgt>
<wgt id='1148'> +2.8343000e+11 </wgt>
<wgt id='1149'> +2.8343000e+11 </wgt>
<wgt id='1150'> +2.9583588e+11 </wgt>
<wgt id='1151'> +2.7887977e+11 </wgt>
<wgt id='1152'> +2.8032209e+11 </wgt>
<wgt id='1153'> +2.8657363e+11 </wgt>
<wgt id='1154'> +2.8449563e+11 </wgt>
<wgt id='1155'> +2.9097056e+11 </wgt>
<wgt id='1156'> +2.7720211e+11 </wgt>
<wgt id='1157'> +2.7492963e+11 </wgt>
<wgt id='1158'> +2.7721540e+11 </wgt>
<wgt id='1159'> +2.9914509e+11 </wgt>
<wgt id='1160'> +2.8381259e+11 </wgt>
<wgt id='1161'> +2.8611834e+11 </wgt>
<wgt id='1162'> +2.8193860e+11 </wgt>
<wgt id='1163'> +2.8626350e+11 </wgt>
<wgt id='1164'> +2.7090309e+11 </wgt>
<wgt id='1165'> +2.7782241e+11 </wgt>
<wgt id='1166'> +2.8366755e+11 </wgt>
<wgt id='1167'> +2.7851983e+11 </wgt>
<wgt id='1168'> +2.7526237e+11 </wgt>
<wgt id='1169'> +2.7569530e+11 </wgt>
<wgt id='1170'> +2.8162925e+11 </wgt>
<wgt id='1171'> +2.7293109e+11 </wgt>
<wgt id='1172'> +2.7591645e+11 </wgt>
<wgt id='1173'> +2.8614812e+11 </wgt>
<wgt id='1174'> +2.7780467e+11 </wgt>
<wgt id='1175'> +2.7709816e+11 </wgt>
<wgt id='1176'> +2.8638414e+11 </wgt>
<wgt id='1177'> +2.7824050e+11 </wgt>
<wgt id='1178'> +2.8324216e+11 </wgt>
<wgt id='1179'> +2.8154183e+11 </wgt>
<wgt id='1180'> +2.9012465e+11 </wgt>
<wgt id='1181'> +2.8350808e+11 </wgt>
<wgt id='1182'> +2.8035086e+11 </wgt>
<wgt id='1183'> +2.9215026e+11 </wgt>
<wgt id='1184'> +2.8256895e+11 </wgt>
<wgt id='1185'> +2.8566751e+11 </wgt>
<wgt id='1186'> +2.7524010e+11 </wgt>
<wgt id='1187'> +2.8453180e+11 </wgt>
<wgt id='1188'> +2.8442746e+11 </wgt>
<wgt id='1189'> +2.8321139e+11 </wgt>
<wgt id='1190'> +2.8219936e+11 </wgt>
<wgt id='1191'> +2.9223682e+11 </wgt>
<wgt id='1192'> +2.8989007e+11 </wgt>
<wgt id='1193'> +2.9270196e+11 </wgt>
<wgt id='1194'> +2.8221563e+11 </wgt>
<wgt id='1195'> +2.8383363e+11 </wgt>
<wgt id='1196'> +2.9181114e+11 </wgt>
<wgt id='1197'> +2.9205075e+11 </wgt>
<wgt id='1198'> +2.8117138e+11 </wgt>
<wgt id='1199'> +2.8650226e+11 </wgt>
<wgt id='1200'> +2.8519694e+11 </wgt>
<wgt id='1201'> +2.7997105e+11 </wgt>
<wgt id='1202'> +2.8732462e+11 </wgt>
<wgt id='1203'> +2.7971416e+11 </wgt>
<wgt id='1204'> +2.8483492e+11 </wgt>
<wgt id='1205'> +2.8392101e+11 </wgt>
<wgt id='1206'> +2.7837872e+11 </wgt>
<wgt id='1207'> +2.9169103e+11 </wgt>
<wgt id='1208'> +2.7125662e+11 </wgt>
<wgt id='1209'> +2.8143859e+11 </wgt>
<wgt id='1210'> +2.8368744e+11 </wgt>
<wgt id='1211'> +2.8544176e+11 </wgt>
<wgt id='1212'> +2.8314270e+11 </wgt>
<wgt id='1213'> +2.9073356e+11 </wgt>
<wgt id='1214'> +2.7653692e+11 </wgt>
<wgt id='1215'> +2.8779458e+11 </wgt>
<wgt id='1216'> +2.8384394e+11 </wgt>
<wgt id='1217'> +2.7676187e+11 </wgt>
<wgt id='1218'> +2.8472443e+11 </wgt>
<wgt id='1219'> +2.9379542e+11 </wgt>
<wgt id='1220'> +2.7849091e+11 </wgt>
<wgt id='1221'> +2.7601599e+11 </wgt>
<wgt id='1222'> +2.7915470e+11 </wgt>
<wgt id='1223'> +2.7290677e+11 </wgt>
<wgt id='1224'> +2.8313696e+11 </wgt>
<wgt id='1225'> +2.8829987e+11 </wgt>
<wgt id='1226'> +2.8810885e+11 </wgt>
<wgt id='1227'> +2.7729993e+11 </wgt>
<wgt id='1228'> +2.8182738e+11 </wgt>
<wgt id='1229'> +3.0189830e+11 </wgt>
<wgt id='1230'> +2.9150817e+11 </wgt>
<wgt id='1231'> +2.7782241e+11 </wgt>
<wgt id='1232'> +2.8776851e+11 </wgt>
<wgt id='1233'> +2.7692916e+11 </wgt>
<wgt id='1234'> +2.7683220e+11 </wgt>
<wgt id='1235'> +3.0066378e+11 </wgt>
<wgt id='1236'> +2.7697762e+11 </wgt>
<wgt id='1237'> +2.8906826e+11 </wgt>
<wgt id='1238'> +2.8535169e+11 </wgt>
<wgt id='1239'> +2.8832474e+11 </wgt>
<wgt id='1240'> +2.8137202e+11 </wgt>
<wgt id='1241'> +2.8377481e+11 </wgt>
<wgt id='1242'> +2.8007384e+11 </wgt>
<wgt id='1243'> +2.8693310e+11 </wgt>
<wgt id='1244'> +2.8403510e+11 </wgt>
<wgt id='1245'> +2.8019432e+11 </wgt>
<wgt id='1246'> +3.0554800e+11 </wgt>
<wgt id='1247'> +2.8215929e+11 </wgt>
<wgt id='1248'> +2.7386873e+11 </wgt>
<wgt id='1249'> +2.7634959e+11 </wgt>
<wgt id='1250'> +2.9261543e+11 </wgt>
<wgt id='1251'> +3.0027240e+11 </wgt>
<wgt id='1252'> +2.8814660e+11 </wgt>
<wgt id='1253'> +2.8792815e+11 </wgt>
<wgt id='1254'> +2.8914376e+11 </wgt>
<wgt id='1255'> +3.0047635e+11 </wgt>
<wgt id='1256'> +2.9995021e+11 </wgt>
<wgt id='1257'> +2.9361645e+11 </wgt>
<wgt id='1258'> +2.9717269e+11 </wgt>
<wgt id='1259'> +2.9829725e+11 </wgt>
<wgt id='1260'> +3.2628569e+11 </wgt>
<wgt id='1261'> +3.1435182e+11 </wgt>
<wgt id='1262'> +2.9180679e+11 </wgt>
<wgt id='1263'> +2.9825777e+11 </wgt>
<wgt id='1264'> +3.0082868e+11 </wgt>
<wgt id='1265'> +2.9727537e+11 </wgt>
<wgt id='1266'> +2.9904842e+11 </wgt>
<wgt id='1267'> +3.2856279e+11 </wgt>
<wgt id='1268'> +2.9267576e+11 </wgt>
<wgt id='1269'> +2.8758299e+11 </wgt>
<wgt id='1270'> +2.9743566e+11 </wgt>
<wgt id='1271'> +2.7451054e+11 </wgt>
<wgt id='1272'> +2.9362762e+11 </wgt>
<wgt id='1273'> +2.9166204e+11 </wgt>
<wgt id='1274'> +2.8725962e+11 </wgt>
<wgt id='1275'> +2.9719741e+11 </wgt>
<wgt id='1276'> +2.9877237e+11 </wgt>
<wgt id='1277'> +2.9391029e+11 </wgt>
<wgt id='1278'> +2.9338060e+11 </wgt>
<wgt id='1279'> +2.8098436e+11 </wgt>
<wgt id='1280'> +2.9004258e+11 </wgt>
<wgt id='1281'> +2.8579120e+11 </wgt>
<wgt id='1282'> +2.9657717e+11 </wgt>
<wgt id='1283'> +3.0162247e+11 </wgt>
<wgt id='1284'> +3.1292399e+11 </wgt>
<wgt id='1285'> +3.0870228e+11 </wgt>
<wgt id='1286'> +3.2953087e+11 </wgt>
<wgt id='1287'> +3.0479550e+11 </wgt>
<wgt id='1288'> +3.2760699e+11 </wgt>
<wgt id='1289'> +3.1379700e+11 </wgt>
<wgt id='1290'> +3.1227541e+11 </wgt>
<wgt id='1291'> +2.7852293e+11 </wgt>
<wgt id='1292'> +3.0007816e+11 </wgt>
<wgt id='1293'> +3.0213432e+11 </wgt>
<wgt id='1294'> +3.1778529e+11 </wgt>
<wgt id='1295'> +3.0476744e+11 </wgt>
<wgt id='1296'> +3.2074253e+11 </wgt>
<wgt id='1297'> +2.9430738e+11 </wgt>
<wgt id='1298'> +2.8827411e+11 </wgt>
<wgt id='1299'> +3.0130095e+11 </wgt>
<wgt id='1300'> +2.8817173e+11 </wgt>
<wgt id='1301'> +2.8013909e+11 </wgt>
<wgt id='1302'> +2.8090756e+11 </wgt>
<wgt id='1303'> +3.0063316e+11 </wgt>
<wgt id='1304'> +3.1394743e+11 </wgt>
<wgt id='1305'> +2.9899806e+11 </wgt>
<wgt id='1306'> +3.0611323e+11 </wgt>
<wgt id='1307'> +2.9819505e+11 </wgt>
<wgt id='1308'> +3.2780944e+11 </wgt>
<wgt id='1309'> +2.9814320e+11 </wgt>
<wgt id='1310'> +3.0305301e+11 </wgt>
<wgt id='1311'> +3.0470084e+11 </wgt>
<wgt id='1312'> +3.0403998e+11 </wgt>
<wgt id='1313'> +2.9978139e+11 </wgt>
<wgt id='1314'> +3.0091451e+11 </wgt>
<wgt id='1315'> +2.8667187e+11 </wgt>
<wgt id='1316'> +2.9972519e+11 </wgt>
<wgt id='1317'> +3.0505274e+11 </wgt>
<wgt id='1318'> +2.8997018e+11 </wgt>
<wgt id='1319'> +3.0285329e+11 </wgt>
<wgt id='1320'> +3.1272459e+11 </wgt>
<wgt id='1321'> +2.9658792e+11 </wgt>
<wgt id='1322'> +3.0092693e+11 </wgt>
<wgt id='1323'> +2.9595591e+11 </wgt>
<wgt id='1324'> +3.0373769e+11 </wgt>
<wgt id='1325'> +3.1196508e+11 </wgt>
<wgt id='1326'> +3.0620287e+11 </wgt>
<wgt id='1327'> +3.0180305e+11 </wgt>
<wgt id='1328'> +2.9994475e+11 </wgt>
<wgt id='1329'> +2.9842686e+11 </wgt>
<wgt id='1330'> +2.8905906e+11 </wgt>
<wgt id='1331'> +3.2103906e+11 </wgt>
<wgt id='1332'> +2.9042414e+11 </wgt>
<wgt id='1333'> +3.0188813e+11 </wgt>
<wgt id='1334'> +3.1521508e+11 </wgt>
<wgt id='1335'> +2.9342097e+11 </wgt>
<wgt id='1336'> +3.0791364e+11 </wgt>
<wgt id='1337'> +3.0911732e+11 </wgt>
<wgt id='1338'> +2.8951144e+11 </wgt>
<wgt id='1339'> +3.1895063e+11 </wgt>
<wgt id='1340'> +3.0380067e+11 </wgt>
<wgt id='1341'> +3.1133379e+11 </wgt>
<wgt id='1342'> +3.1103289e+11 </wgt>
<wgt id='1343'> +3.1007425e+11 </wgt>
<wgt id='1344'> +3.0961720e+11 </wgt>
<wgt id='1345'> +2.7440072e+11 </wgt>
<wgt id='1346'> +3.0194100e+11 </wgt>
<wgt id='1347'> +2.8924779e+11 </wgt>
<wgt id='1348'> +2.8948887e+11 </wgt>
<wgt id='1349'> +2.8862763e+11 </wgt>
<wgt id='1350'> +3.0373382e+11 </wgt>
<wgt id='1351'> +2.9505459e+11 </wgt>
<wgt id='1352'> +3.0226305e+11 </wgt>
<wgt id='1353'> +2.9891511e+11 </wgt>
<wgt id='1354'> +3.0830899e+11 </wgt>
<wgt id='1355'> +2.7585931e+11 </wgt>
<wgt id='1356'> +2.7856265e+11 </wgt>
<wgt id='1357'> +2.7635390e+11 </wgt>
<wgt id='1358'> +2.7366844e+11 </wgt>
<wgt id='1359'> +2.7615048e+11 </wgt>
<wgt id='1360'> +2.6996914e+11 </wgt>
<wgt id='1361'> +2.7537160e+11 </wgt>
<wgt id='1362'> +2.8008426e+11 </wgt>
<wgt id='1363'> +2.7119703e+11 </wgt>
<wgt id='1364'> +2.8120655e+11 </wgt>
<wgt id='1365'> +2.7361690e+11 </wgt>
<wgt id='1366'> +2.7423750e+11 </wgt>
<wgt id='1367'> +2.7644132e+11 </wgt>
<wgt id='1368'> +2.7607698e+11 </wgt>
<wgt id='1369'> +2.7920015e+11 </wgt>
<wgt id='1370'> +2.7384315e+11 </wgt>
<wgt id='1371'> +2.7504482e+11 </wgt>
<wgt id='1372'> +2.7933586e+11 </wgt>
<wgt id='1373'> +2.7920854e+11 </wgt>
<wgt id='1374'> +2.6792400e+11 </wgt>
<wgt id='1375'> +2.7574682e+11 </wgt>
<wgt id='1376'> +2.7594027e+11 </wgt>
<wgt id='1377'> +2.7627403e+11 </wgt>
<wgt id='1378'> +2.7323006e+11 </wgt>
<wgt id='1379'> +2.7433888e+11 </wgt>
<wgt id='1380'> +2.7378389e+11 </wgt>
<wgt id='1381'> +2.8093240e+11 </wgt>
<wgt id='1382'> +2.7522260e+11 </wgt>
<wgt id='1383'> +2.7477598e+11 </wgt>
<wgt id='1384'> +2.7341099e+11 </wgt>
<wgt id='1385'> +2.7317629e+11 </wgt>
<wgt id='1386'> +2.7636950e+11 </wgt>
<wgt id='1387'> +2.7448372e+11 </wgt>
<wgt id='1388'> +2.7161260e+11 </wgt>
<wgt id='1389'> +2.7464443e+11 </wgt>
<wgt id='1390'> +2.7620698e+11 </wgt>
<wgt id='1391'> +2.7374791e+11 </wgt>
<wgt id='1392'> +2.7344220e+11 </wgt>
<wgt id='1393'> +2.7496754e+11 </wgt>
<wgt id='1394'> +2.7394080e+11 </wgt>
<wgt id='1395'> +2.7133363e+11 </wgt>
<wgt id='1396'> +2.7660747e+11 </wgt>
<wgt id='1397'> +2.7662430e+11 </wgt>
<wgt id='1398'> +2.7716407e+11 </wgt>
<wgt id='1399'> +2.7240865e+11 </wgt>
<wgt id='1400'> +2.7216081e+11 </wgt>
<wgt id='1401'> +2.7542042e+11 </wgt>
<wgt id='1402'> +2.7884402e+11 </wgt>
<wgt id='1403'> +2.8067236e+11 </wgt>
<wgt id='1404'> +2.7570646e+11 </wgt>
<wgt id='1405'> +2.8206804e+11 </wgt>
<wgt id='1406'> +2.7661558e+11 </wgt>
<wgt id='1407'> +2.7628873e+11 </wgt>
<wgt id='1408'> +2.7996096e+11 </wgt>
<wgt id='1409'> +2.7292141e+11 </wgt>
<wgt id='1410'> +2.7128246e+11 </wgt>
<wgt id='1411'> +2.7557054e+11 </wgt>
<wgt id='1412'> +2.7421709e+11 </wgt>
<wgt id='1413'> +2.7361766e+11 </wgt>
<wgt id='1414'> +2.7806499e+11 </wgt>
<wgt id='1415'> +2.8015843e+11 </wgt>
<wgt id='1416'> +2.7848445e+11 </wgt>
<wgt id='1417'> +2.7076970e+11 </wgt>
<wgt id='1418'> +2.7668538e+11 </wgt>
<wgt id='1419'> +2.7960088e+11 </wgt>
<wgt id='1420'> +2.7446143e+11 </wgt>
<wgt id='1421'> +2.8195621e+11 </wgt>
<wgt id='1422'> +2.6880288e+11 </wgt>
<wgt id='1423'> +2.8086588e+11 </wgt>
<wgt id='1424'> +2.7702959e+11 </wgt>
<wgt id='1425'> +2.7636347e+11 </wgt>
<wgt id='1426'> +2.7858942e+11 </wgt>
<wgt id='1427'> +2.7555085e+11 </wgt>
<wgt id='1428'> +2.7541331e+11 </wgt>
<wgt id='1429'> +2.7371399e+11 </wgt>
<wgt id='1430'> +2.7160871e+11 </wgt>
<wgt id='1431'> +2.7085764e+11 </wgt>
<wgt id='1432'> +2.7637439e+11 </wgt>
<wgt id='1433'> +2.7511980e+11 </wgt>
<wgt id='1434'> +2.8312436e+11 </wgt>
<wgt id='1435'> +2.7484856e+11 </wgt>
<wgt id='1436'> +2.7967484e+11 </wgt>
<wgt id='1437'> +2.7715654e+11 </wgt>
<wgt id='1438'> +2.7457825e+11 </wgt>
<wgt id='1439'> +2.7824760e+11 </wgt>
<wgt id='1440'> +2.7938221e+11 </wgt>
<wgt id='1441'> +2.7442726e+11 </wgt>
<wgt id='1442'> +2.8202104e+11 </wgt>
<wgt id='1443'> +2.7370812e+11 </wgt>
<wgt id='1444'> +2.7619796e+11 </wgt>
<wgt id='1445'> +2.7776998e+11 </wgt>
<wgt id='1446'> +2.7978506e+11 </wgt>
<wgt id='1447'> +2.7275272e+11 </wgt>
<wgt id='1448'> +2.7826679e+11 </wgt>
<wgt id='1449'> +2.7806949e+11 </wgt>
<wgt id='1450'> +2.7467167e+11 </wgt>
<wgt id='1451'> +2.7724368e+11 </wgt>
<wgt id='1452'> +2.7842268e+11 </wgt>
<wgt id='1453'> +2.7888067e+11 </wgt>
<wgt id='1454'> +2.6860921e+11 </wgt>
<wgt id='1455'> +2.7488442e+11 </wgt>
<wgt id='1456'> +2.7496685e+11 </wgt>
<wgt id='1457'> +2.7475967e+11 </wgt>
<wgt id='1458'> +2.7903928e+11 </wgt>
<wgt id='1459'> +3.0723887e+11 </wgt>
<wgt id='1460'> +3.0244930e+11 </wgt>
<wgt id='1461'> +3.5327440e+11 </wgt>
<wgt id='1462'> +2.9887276e+11 </wgt>
<wgt id='1463'> +2.9911210e+11 </wgt>
<wgt id='1464'> +2.9856579e+11 </wgt>
<wgt id='1465'> +2.9893589e+11 </wgt>
<wgt id='1466'> +2.9881506e+11 </wgt>
<wgt id='1467'> +2.9901920e+11 </wgt>
<wgt id='1468'> +2.9863246e+11 </wgt>
<wgt id='1469'> +2.9843039e+11 </wgt>
<wgt id='1470'> +2.9923203e+11 </wgt>
<wgt id='1471'> +2.9933953e+11 </wgt>
<wgt id='1472'> +2.9839199e+11 </wgt>
<wgt id='1473'> +3.0003407e+11 </wgt>
<wgt id='1474'> +2.9775733e+11 </wgt>
<wgt id='1475'> +2.9997790e+11 </wgt>
<wgt id='1476'> +2.9808925e+11 </wgt>
<wgt id='1477'> +2.9831011e+11 </wgt>
<wgt id='1478'> +3.0018712e+11 </wgt>
<wgt id='1479'> +2.9837492e+11 </wgt>
<wgt id='1480'> +2.9922169e+11 </wgt>
<wgt id='1481'> +2.9842244e+11 </wgt>
<wgt id='1482'> +2.9948049e+11 </wgt>
<wgt id='1483'> +2.9896147e+11 </wgt>
<wgt id='1484'> +2.9874743e+11 </wgt>
<wgt id='1485'> +2.9907824e+11 </wgt>
<wgt id='1486'> +2.9837794e+11 </wgt>
<wgt id='1487'> +2.9913457e+11 </wgt>
<wgt id='1488'> +2.9854465e+11 </wgt>
<wgt id='1489'> +2.9851585e+11 </wgt>
<wgt id='1490'> +2.9984042e+11 </wgt>
<wgt id='1491'> +3.0379648e+11 </wgt>
<wgt id='1492'> +2.9612615e+11 </wgt>
<wgt id='1493'> +2.9534047e+11 </wgt>
<wgt id='1494'> +3.0994644e+11 </wgt>
<wgt id='1495'> +2.9819096e+11 </wgt>
<wgt id='1496'> +2.9960429e+11 </wgt>
<wgt id='1497'> +2.9907157e+11 </wgt>
<wgt id='1498'> +2.9860102e+11 </wgt>
<wgt id='1499'> +3.0078552e+11 </wgt>
<wgt id='1500'> +2.9782685e+11 </wgt>
<wgt id='1501'> +2.9931461e+11 </wgt>
<wgt id='1502'> +2.9770240e+11 </wgt>
<wgt id='1503'> +2.9551943e+11 </wgt>
<wgt id='1504'> +3.0248086e+11 </wgt>
<wgt id='1505'> +2.9981392e+11 </wgt>
<wgt id='1506'> +2.9796157e+11 </wgt>
<wgt id='1507'> +3.0063946e+11 </wgt>
<wgt id='1508'> +2.9708835e+11 </wgt>
<wgt id='1509'> +2.9949330e+11 </wgt>
<wgt id='1510'> +2.9620652e+11 </wgt>
<wgt id='1511'> +3.0001687e+11 </wgt>
<wgt id='1512'> +2.9853322e+11 </wgt>
<wgt id='1513'> +2.9877955e+11 </wgt>
<wgt id='1514'> +2.9897077e+11 </wgt>
<wgt id='1515'> +3.0156718e+11 </wgt>
<wgt id='1516'> +2.9913777e+11 </wgt>
<wgt id='1517'> +2.9846943e+11 </wgt>
<wgt id='1518'> +2.9926305e+11 </wgt>
<wgt id='1519'> +2.9716282e+11 </wgt>
<wgt id='1520'> +3.0008821e+11 </wgt>
<wgt id='1521'> +2.9800245e+11 </wgt>
<wgt id='1522'> +2.9938481e+11 </wgt>
<wgt id='1523'> +3.0017383e+11 </wgt>
<wgt id='1524'> +3.0030578e+11 </wgt>
<wgt id='1525'> +2.9998269e+11 </wgt>
<wgt id='1526'> +2.9981500e+11 </wgt>
<wgt id='1527'> +2.9887276e+11 </wgt>
<wgt id='1528'> +2.9849368e+11 </wgt>
<wgt id='1529'> +2.9877790e+11 </wgt>
<wgt id='1530'> +2.9502415e+11 </wgt>
<wgt id='1531'> +2.9708757e+11 </wgt>
<wgt id='1532'> +2.9486411e+11 </wgt>
<wgt id='1533'> +2.9233260e+11 </wgt>
<wgt id='1534'> +2.9550846e+11 </wgt>
<wgt id='1535'> +2.9953200e+11 </wgt>
<wgt id='1536'> +2.9455645e+11 </wgt>
<wgt id='1537'> +2.9715759e+11 </wgt>
<wgt id='1538'> +2.9388949e+11 </wgt>
<wgt id='1539'> +3.0289322e+11 </wgt>
<wgt id='1540'> +2.9663366e+11 </wgt>
<wgt id='1541'> +2.9781575e+11 </wgt>
<wgt id='1542'> +2.9709015e+11 </wgt>
<wgt id='1543'> +2.9838419e+11 </wgt>
<wgt id='1544'> +2.9519668e+11 </wgt>
<wgt id='1545'> +2.9508618e+11 </wgt>
<wgt id='1546'> +2.9314451e+11 </wgt>
<wgt id='1547'> +2.9940543e+11 </wgt>
<wgt id='1548'> +2.9525584e+11 </wgt>
<wgt id='1549'> +2.9359106e+11 </wgt>
<wgt id='1550'> +2.9810740e+11 </wgt>
<wgt id='1551'> +2.9767097e+11 </wgt>
<wgt id='1552'> +2.9662772e+11 </wgt>
<wgt id='1553'> +2.9947569e+11 </wgt>
<wgt id='1554'> +2.9699635e+11 </wgt>
<wgt id='1555'> +2.9778652e+11 </wgt>
<wgt id='1556'> +2.9946207e+11 </wgt>
<wgt id='1557'> +2.9600139e+11 </wgt>
<wgt id='1558'> +2.9720304e+11 </wgt>
<wgt id='1559'> +2.9486393e+11 </wgt>
<wgt id='1560'> +2.9582060e+11 </wgt>
<wgt id='1561'> +2.9377820e+11 </wgt>
<wgt id='1562'> +2.9572494e+11 </wgt>
<wgt id='1563'> +2.9714993e+11 </wgt>
<wgt id='1564'> +2.9665101e+11 </wgt>
<wgt id='1565'> +2.9920043e+11 </wgt>
<wgt id='1566'> +2.9703534e+11 </wgt>
<wgt id='1567'> +3.0033782e+11 </wgt>
<wgt id='1568'> +2.9700813e+11 </wgt>
<wgt id='1569'> +2.9669926e+11 </wgt>
<wgt id='1570'> +3.0435643e+11 </wgt>
<wgt id='1571'> +2.9696924e+11 </wgt>
<wgt id='1572'> +2.9913441e+11 </wgt>
<wgt id='1573'> +3.0047246e+11 </wgt>
<wgt id='1574'> +2.6320678e+11 </wgt>
<wgt id='1575'> +2.6327783e+11 </wgt>
<wgt id='1576'> +2.6313888e+11 </wgt>
<wgt id='1577'> +2.6322501e+11 </wgt>
<wgt id='1578'> +2.6381242e+11 </wgt>
<wgt id='1579'> +2.6405312e+11 </wgt>
<wgt id='1580'> +2.6382435e+11 </wgt>
<wgt id='1581'> +2.6261829e+11 </wgt>
<wgt id='1582'> +2.6232202e+11 </wgt>
<wgt id='1583'> +2.6275699e+11 </wgt>
<wgt id='1584'> +2.6378349e+11 </wgt>
<wgt id='1585'> +2.6340956e+11 </wgt>
<wgt id='1586'> +2.6224156e+11 </wgt>
<wgt id='1587'> +2.6246958e+11 </wgt>
<wgt id='1588'> +2.6198261e+11 </wgt>
<wgt id='1589'> +2.6293653e+11 </wgt>
<wgt id='1590'> +2.6303170e+11 </wgt>
<wgt id='1591'> +2.6327826e+11 </wgt>
<wgt id='1592'> +2.6218802e+11 </wgt>
<wgt id='1593'> +2.6227907e+11 </wgt>
<wgt id='1594'> +2.6408625e+11 </wgt>
<wgt id='1595'> +2.6088864e+11 </wgt>
<wgt id='1596'> +2.6697245e+11 </wgt>
<wgt id='1597'> +2.6496811e+11 </wgt>
<wgt id='1598'> +2.6516529e+11 </wgt>
<wgt id='1599'> +2.6038878e+11 </wgt>
<wgt id='1600'> +2.6776201e+11 </wgt>
<wgt id='1601'> +2.6535007e+11 </wgt>
<wgt id='1602'> +2.6325496e+11 </wgt>
<wgt id='1603'> +2.7463447e+11 </wgt>
<wgt id='1604'> +2.6325470e+11 </wgt>
</rwgt>
</event>
<event>
 9      1 +2.8343000e+11 1.40000000e+03 7.81738600e-03 7.88881200e-02
       21 -1    0    0  504  503 +0.0000000000e+00 +0.0000000000e+00 +1.4568508088e+03 1.4568508088e+03 0.0000000000e+00 0.0000e+00 -1.0000e+00
       21 -1    0    0  503  504 -0.0000000000e+00 -0.0000000000e+00 -3.3634194545e+02 3.3634194545e+02 0.0000000000e+00 0.0000e+00 -1.0000e+00
       45  2    1    2    0    0 -5.6843418861e-14 +5.6843418861e-14 +1.1205088634e+03 1.7931927543e+03 1.4000000504e+03 0.0000e+00 0.0000e+00
       25  2    3    3    0    0 -3.3051550361e+02 -4.5988806200e+02 +5.4233736419e+01 5.8249883132e+02 1.2500425045e+02 0.0000e+00 0.0000e+00
       35  2    3    3    0    0 +3.3051550361e+02 +4.5988806200e+02 +1.0662751270e+03 1.2106939230e+03 8.9997783391e+01 0.0000e+00 0.0000e+00
        5  1    5    5  501    0 +2.2376811921e+02 +3.0476568762e+02 +7.9625587036e+02 8.8147346211e+02 4.2140000000e+00 0.0000e+00 1.0000e+00
       -5  1    5    5    0  501 +1.0674738440e+02 +1.5512237438e+02 +2.7001925660e+02 3.2922046085e+02 4.2140000000e+00 0.0000e+00 1.0000e+00
        5  1    4    4  502    0 -9.3918422772e+01 -5.7282606373e+01 +3.3366128597e+01 1.1503487933e+02 4.2140000000e+00 0.0000e+00 -1.0000e+00
       -5  1    4    4    0  502 -2.3659708084e+02 -4.0260545563e+02 +2.0867607822e+01 4.6746395200e+02 4.2140000000e+00 0.0000e+00 -1.0000e+00
<mgrwt>
<rscale>  0 0.14000001E+04</rscale>
<asrwt>0</asrwt>
<pdfrwt beam="1">  1       21 0.22413089E+00 0.14000001E+04</pdfrwt>
<pdfrwt beam="2">  1       21 0.51744916E-01 0.14000001E+04</pdfrwt>
<totfact> 0.21882901E+02</totfact>
</mgrwt>
<rwgt>
<wgt id='1001'> +2.8343000e+11 </wgt>
<wgt id='1002'> +2.9324587e+11 </wgt>
<wgt id='1003'> +2.9324335e+11 </wgt>
<wgt id='1004'> +3.3127658e+11 </wgt>
<wgt id='1005'> +2.8343000e+11 </wgt>
<wgt id='1006'> +2.8343000e+11 </wgt>
<wgt id='1007'> +2.9324587e+11 </wgt>
<wgt id='1008'> +2.9324335e+11 </wgt>
<wgt id='1009'> +3.3127658e+11 </wgt>
<wgt id='1010'> +2.8343000e+11 </wgt>
<wgt id='1011'> +2.8343000e+11 </wgt>
<wgt id='1012'> +2.9324587e+11 </wgt>
<wgt id='1013'> +2.9324335e+11 </wgt>
<wgt id='1014'> +3.3127658e+11 </wgt>
<wgt id='1015'> +2.8343000e+11 </wgt>
<wgt id='1016'> +2.5336406e+11 </wgt>
<wgt id='1017'> +2.6160744e+11 </wgt>
<wgt id='1018'> +2.6160533e+11 </wgt>
<wgt id='1019'> +2.9324335e+11 </wgt>
<wgt id='1020'> +2.5336406e+11 </wgt>
<wgt id='1021'> +2.5336406e+11 </wgt>
<wgt id='1022'> +2.6160744e+11 </wgt>
<wgt id='1023'> +2.6160533e+11 </wgt>
<wgt id='1024'> +2.9324335e+11 </wgt>
<wgt id='1025'> +2.5336406e+11 </wgt>
<wgt id='1026'> +2.5336406e+11 </wgt>
<wgt id='1027'> +2.6160744e+11 </wgt>
<wgt id='1028'> +2.6160533e+11 </wgt>
<wgt id='1029'> +2.9324335e+11 </wgt>
<wgt id='1030'> +2.5336406e+11 </wgt>
<wgt id='1031'> +3.1943622e+11 </wgt>
<wgt id='1032'> +3.3127962e+11 </wgt>
<wgt id='1033'> +3.3127658e+11 </wgt>
<wgt id='1034'> +3.7745205e+11 </wgt>
<wgt id='1035'> +3.1943623e+11 </wgt>
<wgt id='1036'> +3.1943622e+11 </wgt>
<wgt id='1037'> +3.3127962e+11 </wgt>
<wgt id='1038'> +3.3127658e+11 </wgt>
<wgt id='1039'> +3.7745205e+11 </wgt>
<wgt id='1040'> +3.1943623e+11 </wgt>
<wgt id='1041'> +3.1943622e+11 </wgt>
<wgt id='1042'> +3.3127962e+11 </wgt>
<wgt id='1043'> +3.3127658e+11 </wgt>
<wgt id='1044'> +3.7745205e+11 </wgt>
<wgt id='1045'> +3.1943623e+11 </wgt>
<wgt id='1046'> +2.8343000e+11 </wgt>
<wgt id='1047'> +2.8343000e+11 </wgt>
<wgt id='1048'> +2.8343000e+11 </wgt>
<wgt id='1049'> +2.8303273e+11 </wgt>
<wgt id='1050'> +2.8315059e+11 </wgt>
<wgt id='1051'> +2.8347090e+11 </wgt>
<wgt id='1052'> +2.8405241e+11 </wgt>
<wgt id='1053'> +2.8150637e+11 </wgt>
<wgt id='1054'> +2.8393582e+11 </wgt>
<wgt id='1055'> +2.8205281e+11 </wgt>
<wgt id='1056'> +2.8192245e+11 </wgt>
<wgt id='1057'> +2.8247824e+11 </wgt>
<wgt id='1058'> +2.8250536e+11 </wgt>
<wgt id='1059'> +2.8568622e+11 </wgt>
<wgt id='1060'> +2.8365965e+11 </wgt>
<wgt id='1061'> +2.8402588e+11 </wgt>
<wgt id='1062'> +2.8426208e+11 </wgt>
<wgt id='1063'> +2.8474496e+11 </wgt>
<wgt id='1064'> +2.8414319e+11 </wgt>
<wgt id='1065'> +2.8495663e+11 </wgt>
<wgt id='1066'> +2.8169281e+11 </wgt>
<wgt id='1067'> +2.8247283e+11 </wgt>
<wgt id='1068'> +2.8405598e+11 </wgt>
<wgt id='1069'> +2.8249646e+11 </wgt>
<wgt id='1070'> +2.8411255e+11 </wgt>
<wgt id='1071'> +2.8270612e+11 </wgt>
<wgt id='1072'> +2.8400644e+11 </wgt>
<wgt id='1073'> +2.8205802e+11 </wgt>
<wgt id='1074'> +2.8230050e+11 </wgt>
<wgt id='1075'> +2.8349205e+11 </wgt>
<wgt id='1076'> +2.8194086e+11 </wgt>
<wgt id='1077'> +2.8201785e+11 </wgt>
<wgt id='1078'> +2.8390307e+11 </wgt>
<wgt id='1079'> +2.8231576e+11 </wgt>
<wgt id='1080'> +2.8286372e+11 </wgt>
<wgt id='1081'> +2.8310845e+11 </wgt>
<wgt id='1082'> +2.8254689e+11 </wgt>
<wgt id='1083'> +2.8451096e+11 </wgt>
<wgt id='1084'> +2.8404397e+11 </wgt>
<wgt id='1085'> +2.8253611e+11 </wgt>
<wgt id='1086'> +2.8377396e+11 </wgt>
<wgt id='1087'> +2.8354234e+11 </wgt>
<wgt id='1088'> +2.8282834e+11 </wgt>
<wgt id='1089'> +2.8247834e+11 </wgt>
<wgt id='1090'> +2.8415555e+11 </wgt>
<wgt id='1091'> +2.8364561e+11 </wgt>
<wgt id='1092'> +2.8362722e+11 </wgt>
<wgt id='1093'> +2.8344907e+11 </wgt>
<wgt id='1094'> +2.8207351e+11 </wgt>
<wgt id='1095'> +2.8371815e+11 </wgt>
<wgt id='1096'> +2.8339984e+11 </wgt>
<wgt id='1097'> +2.8278821e+11 </wgt>
<wgt id='1098'> +2.8315273e+11 </wgt>
<wgt id='1099'> +2.8324207e+11 </wgt>
<wgt id='1100'> +2.8399643e+11 </wgt>
<wgt id='1101'> +2.8343805e+11 </wgt>
<wgt id='1102'> +2.8329771e+11 </wgt>
<wgt id='1103'> +2.8256090e+11 </wgt>
<wgt id='1104'> +2.8341010e+11 </wgt>
<wgt id='1105'> +2.8351328e+11 </wgt>
<wgt id='1106'> +2.8384631e+11 </wgt>
<wgt id='1107'> +2.8372727e+11 </wgt>
<wgt id='1108'> +2.8319800e+11 </wgt>
<wgt id='1109'> +2.8329881e+11 </wgt>
<wgt id='1110'> +2.8362313e+11 </wgt>
<wgt id='1111'> +2.8378245e+11 </wgt>
<wgt id='1112'> +2.8330705e+11 </wgt>
<wgt id='1113'> +2.8379746e+11 </wgt>
<wgt id='1114'> +2.8312752e+11 </wgt>
<wgt id='1115'> +2.8285586e+11 </wgt>
<wgt id='1116'> +2.8421257e+11 </wgt>
<wgt id='1117'> +2.8335066e+11 </wgt>
<wgt id='1118'> +2.8384106e+11 </wgt>
<wgt id='1119'> +2.8296946e+11 </wgt>
<wgt id='1120'> +2.8294237e+11 </wgt>
<wgt id='1121'> +2.8349249e+11 </wgt>
<wgt id='1122'> +2.8299441e+11 </wgt>
<wgt id='1123'> +2.8336188e+11 </wgt>
<wgt id='1124'> +2.8352325e+11 </wgt>
<wgt id='1125'> +2.8362134e+11 </wgt>
<wgt id='1126'> +2.8357215e+11 </wgt>
<wgt id='1127'> +2.8330128e+11 </wgt>
<wgt id='1128'> +2.8333564e+11 </wgt>
<wgt id='1129'> +2.8322545e+11 </wgt>
<wgt id='1130'> +2.8345770e+11 </wgt>
<wgt id='1131'> +2.8403134e+11 </wgt>
<wgt id='1132'> +2.8329597e+11 </wgt>
<wgt id='1133'> +2.8360176e+11 </wgt>
<wgt id='1134'> +2.8340250e+11 </wgt>
<wgt id='1135'> +2.8346330e+11 </wgt>
<wgt id='1136'> +2.8326986e+11 </wgt>
<wgt id='1137'> +2.8318196e+11 </wgt>
<wgt id='1138'> +2.8358258e+11 </wgt>
<wgt id='1139'> +2.8356877e+11 </wgt>
<wgt id='1140'> +2.8372799e+11 </wgt>
<wgt id='1141'> +2.8313020e+11 </wgt>
<wgt id='1142'> +2.8349534e+11 </wgt>
<wgt id='1143'> +2.8364534e+11 </wgt>
<wgt id='1144'> +2.8332410e+11 </wgt>
<wgt id='1145'> +2.8360920e+11 </wgt>
<wgt id='1146'> +2.8353136e+11 </wgt>
<wgt id='1147'> +2.8349600e+11 </wgt>
<wgt id='1148'> +2.8343000e+11 </wgt>
<wgt id='1149'> +2.8343000e+11 </wgt>
<wgt id='1150'> +2.9493229e+11 </wgt>
<wgt id='1151'> +2.7637770e+11 </wgt>
<wgt id='1152'> +2.7097184e+11 </wgt>
<wgt id='1153'> +2.8556381e+11 </wgt>
<wgt id='1154'> +2.7825795e+11 </wgt>
<wgt id='1155'> +2.9746349e+11 </wgt>
<wgt id='1156'> +2.8128095e+11 </wgt>
<wgt id='1157'> +2.7682568e+11 </wgt>
<wgt id='1158'> +2.7721485e+11 </wgt>
<wgt id='1159'> +2.9457218e+11 </wgt>
<wgt id='1160'> +2.8465332e+11 </wgt>
<wgt id='1161'> +2.9411372e+11 </wgt>
<wgt id='1162'> +2.8713913e+11 </wgt>
<wgt id='1163'> +2.8767378e+11 </wgt>
<wgt id='1164'> +2.7462907e+11 </wgt>
<wgt id='1165'> +2.7631390e+11 </wgt>
<wgt id='1166'> +2.8357685e+11 </wgt>
<wgt id='1167'> +2.7882824e+11 </wgt>
<wgt id='1168'> +2.7283634e+11 </wgt>
<wgt id='1169'> +2.7644009e+11 </wgt>
<wgt id='1170'> +2.8477446e+11 </wgt>
<wgt id='1171'> +2.7398318e+11 </wgt>
<wgt id='1172'> +2.7260554e+11 </wgt>
<wgt id='1173'> +2.8669141e+11 </wgt>
<wgt id='1174'> +2.7725852e+11 </wgt>
<wgt id='1175'> +2.7906141e+11 </wgt>
<wgt id='1176'> +2.8810317e+11 </wgt>
<wgt id='1177'> +2.8042748e+11 </wgt>
<wgt id='1178'> +2.8615580e+11 </wgt>
<wgt id='1179'> +2.8893774e+11 </wgt>
<wgt id='1180'> +2.7575435e+11 </wgt>
<wgt id='1181'> +2.9385399e+11 </wgt>
<wgt id='1182'> +2.8182437e+11 </wgt>
<wgt id='1183'> +2.8879214e+11 </wgt>
<wgt id='1184'> +2.7155142e+11 </wgt>
<wgt id='1185'> +2.9072232e+11 </wgt>
<wgt id='1186'> +2.7905725e+11 </wgt>
<wgt id='1187'> +2.8652036e+11 </wgt>
<wgt id='1188'> +2.9262273e+11 </wgt>
<wgt id='1189'> +2.8264504e+11 </wgt>
<wgt id='1190'> +2.8023632e+11 </wgt>
<wgt id='1191'> +2.9135450e+11 </wgt>
<wgt id='1192'> +2.8741045e+11 </wgt>
<wgt id='1193'> +2.8832313e+11 </wgt>
<wgt id='1194'> +2.7718436e+11 </wgt>
<wgt id='1195'> +2.8868617e+11 </wgt>
<wgt id='1196'> +2.9023695e+11 </wgt>
<wgt id='1197'> +2.9061427e+11 </wgt>
<wgt id='1198'> +2.8691948e+11 </wgt>
<wgt id='1199'> +2.8568048e+11 </wgt>
<wgt id='1200'> +2.9244431e+11 </wgt>
<wgt id='1201'> +2.8356934e+11 </wgt>
<wgt id='1202'> +2.8412082e+11 </wgt>
<wgt id='1203'> +2.8630111e+11 </wgt>
<wgt id='1204'> +2.7927792e+11 </wgt>
<wgt id='1205'> +2.8629947e+11 </wgt>
<wgt id='1206'> +2.8125911e+11 </wgt>
<wgt id='1207'> +2.9221039e+11 </wgt>
<wgt id='1208'> +2.7202293e+11 </wgt>
<wgt id='1209'> +2.8577287e+11 </wgt>
<wgt id='1210'> +2.8710588e+11 </wgt>
<wgt id='1211'> +2.7931169e+11 </wgt>
<wgt id='1212'> +2.8248192e+11 </wgt>
<wgt id='1213'> +2.8506269e+11 </wgt>
<wgt id='1214'> +2.7997873e+11 </wgt>
<wgt id='1215'> +2.7802342e+11 </wgt>
<wgt id='1216'> +2.7307837e+11 </wgt>
<wgt id='1217'> +2.8256089e+11 </wgt>
<wgt id='1218'> +2.8487772e+11 </wgt>
<wgt id='1219'> +2.9301605e+11 </wgt>
<wgt id='1220'> +2.8126951e+11 </wgt>
<wgt id='1221'> +2.7646950e+11 </wgt>
<wgt id='1222'> +2.7913844e+11 </wgt>
<wgt id='1223'> +2.7439312e+11 </wgt>
<wgt id='1224'> +2.8201047e+11 </wgt>
<wgt id='1225'> +2.7973600e+11 </wgt>
<wgt id='1226'> +2.8504818e+11 </wgt>
<wgt id='1227'> +2.8072761e+11 </wgt>
<wgt id='1228'> +2.8220874e+11 </wgt>
<wgt id='1229'> +2.9908280e+11 </wgt>
<wgt id='1230'> +2.8723066e+11 </wgt>
<wgt id='1231'> +2.7631390e+11 </wgt>
<wgt id='1232'> +2.8874284e+11 </wgt>
<wgt id='1233'> +2.7715145e+11 </wgt>
<wgt id='1234'> +2.7876423e+11 </wgt>
<wgt id='1235'> +3.0144516e+11 </wgt>
<wgt id='1236'> +2.8075587e+11 </wgt>
<wgt id='1237'> +2.9186746e+11 </wgt>
<wgt id='1238'> +2.7997791e+11 </wgt>
<wgt id='1239'> +2.8715512e+11 </wgt>
<wgt id='1240'> +2.7425558e+11 </wgt>
<wgt id='1241'> +2.9037599e+11 </wgt>
<wgt id='1242'> +2.8145256e+11 </wgt>
<wgt id='1243'> +2.8307315e+11 </wgt>
<wgt id='1244'> +2.9230963e+11 </wgt>
<wgt id='1245'> +2.7281575e+11 </wgt>
<wgt id='1246'> +3.0353960e+11 </wgt>
<wgt id='1247'> +2.8150477e+11 </wgt>
<wgt id='1248'> +2.7393543e+11 </wgt>
<wgt id='1249'> +2.7556663e+11 </wgt>
<wgt id='1250'> +2.9517858e+11 </wgt>
<wgt id='1251'> +3.0492787e+11 </wgt>
<wgt id='1252'> +2.8912844e+11 </wgt>
<wgt id='1253'> +2.9857777e+11 </wgt>
<wgt id='1254'> +2.9154645e+11 </wgt>
<wgt id='1255'> +3.0841930e+11 </wgt>
<wgt id='1256'> +3.0705321e+11 </wgt>
<wgt id='1257'> +3.0328069e+11 </wgt>
<wgt id='1258'> +2.9198978e+11 </wgt>
<wgt id='1259'> +3.1225677e+11 </wgt>
<wgt id='1260'> +3.3326667e+11 </wgt>
<wgt id='1261'> +3.1880213e+11 </wgt>
<wgt id='1262'> +2.9815515e+11 </wgt>
<wgt id='1263'> +3.0256889e+11 </wgt>
<wgt id='1264'> +3.0452770e+11 </wgt>
<wgt id='1265'> +2.9162745e+11 </wgt>
<wgt id='1266'> +3.0738523e+11 </wgt>
<wgt id='1267'> +3.6257252e+11 </wgt>
<wgt id='1268'> +2.8797222e+11 </wgt>
<wgt id='1269'> +2.8687048e+11 </wgt>
<wgt id='1270'> +3.1199300e+11 </wgt>
<wgt id='1271'> +2.6296922e+11 </wgt>
<wgt id='1272'> +2.9589100e+11 </wgt>
<wgt id='1273'> +2.9202389e+11 </wgt>
<wgt id='1274'> +2.8881634e+11 </wgt>
<wgt id='1275'> +2.9236052e+11 </wgt>
<wgt id='1276'> +3.0892316e+11 </wgt>
<wgt id='1277'> +3.0477350e+11 </wgt>
<wgt id='1278'> +3.0370539e+11 </wgt>
<wgt id='1279'> +2.7920239e+11 </wgt>
<wgt id='1280'> +2.8739751e+11 </wgt>
<wgt id='1281'> +2.8617174e+11 </wgt>
<wgt id='1282'> +2.9485529e+11 </wgt>
<wgt id='1283'> +3.1911606e+11 </wgt>
<wgt id='1284'> +3.0549604e+11 </wgt>
<wgt id='1285'> +3.0811827e+11 </wgt>
<wgt id='1286'> +3.3550713e+11 </wgt>
<wgt id='1287'> +3.2128085e+11 </wgt>
<wgt id='1288'> +3.4666009e+11 </wgt>
<wgt id='1289'> +3.1981539e+11 </wgt>
<wgt id='1290'> +3.1483892e+11 </wgt>
<wgt id='1291'> +2.8032277e+11 </wgt>
<wgt id='1292'> +3.0735679e+11 </wgt>
<wgt id='1293'> +3.0516714e+11 </wgt>
<wgt id='1294'> +3.3377458e+11 </wgt>
<wgt id='1295'> +3.1408072e+11 </wgt>
<wgt id='1296'> +3.4067426e+11 </wgt>
<wgt id='1297'> +2.8812080e+11 </wgt>
<wgt id='1298'> +2.9166709e+11 </wgt>
<wgt id='1299'> +3.0760503e+11 </wgt>
<wgt id='1300'> +2.7602745e+11 </wgt>
<wgt id='1301'> +2.8072650e+11 </wgt>
<wgt id='1302'> +2.8161248e+11 </wgt>
<wgt id='1303'> +3.0824007e+11 </wgt>
<wgt id='1304'> +3.3796982e+11 </wgt>
<wgt id='1305'> +2.9845237e+11 </wgt>
<wgt id='1306'> +3.0737645e+11 </wgt>
<wgt id='1307'> +2.8141691e+11 </wgt>
<wgt id='1308'> +3.3551510e+11 </wgt>
<wgt id='1309'> +3.0544323e+11 </wgt>
<wgt id='1310'> +3.0595647e+11 </wgt>
<wgt id='1311'> +2.9480152e+11 </wgt>
<wgt id='1312'> +3.2627578e+11 </wgt>
<wgt id='1313'> +3.0983018e+11 </wgt>
<wgt id='1314'> +2.8902636e+11 </wgt>
<wgt id='1315'> +2.8891837e+11 </wgt>
<wgt id='1316'> +3.0089994e+11 </wgt>
<wgt id='1317'> +3.2240076e+11 </wgt>
<wgt id='1318'> +2.9269825e+11 </wgt>
<wgt id='1319'> +2.9930466e+11 </wgt>
<wgt id='1320'> +3.2257626e+11 </wgt>
<wgt id='1321'> +3.0871070e+11 </wgt>
<wgt id='1322'> +3.2145706e+11 </wgt>
<wgt id='1323'> +2.8345827e+11 </wgt>
<wgt id='1324'> +3.1514431e+11 </wgt>
<wgt id='1325'> +3.1550256e+11 </wgt>
<wgt id='1326'> +3.1290416e+11 </wgt>
<wgt id='1327'> +3.2192035e+11 </wgt>
<wgt id='1328'> +3.0193197e+11 </wgt>
<wgt id='1329'> +2.9790091e+11 </wgt>
<wgt id='1330'> +2.8276312e+11 </wgt>
<wgt id='1331'> +3.2676921e+11 </wgt>
<wgt id='1332'> +3.0539211e+11 </wgt>
<wgt id='1333'> +3.0345659e+11 </wgt>
<wgt id='1334'> +3.2441929e+11 </wgt>
<wgt id='1335'> +2.9064174e+11 </wgt>
<wgt id='1336'> +3.2600956e+11 </wgt>
<wgt id='1337'> +3.1118925e+11 </wgt>
<wgt id='1338'> +2.8608158e+11 </wgt>
<wgt id='1339'> +3.1118497e+11 </wgt>
<wgt id='1340'> +3.1882270e+11 </wgt>
<wgt id='1341'> +3.3963803e+11 </wgt>
<wgt id='1342'> +2.9701964e+11 </wgt>
<wgt id='1343'> +3.1010381e+11 </wgt>
<wgt id='1344'> +3.2408354e+11 </wgt>
<wgt id='1345'> +2.5438421e+11 </wgt>
<wgt id='1346'> +3.0731927e+11 </wgt>
<wgt id='1347'> +2.9824282e+11 </wgt>
<wgt id='1348'> +2.9254877e+11 </wgt>
<wgt id='1349'> +2.9039072e+11 </wgt>
<wgt id='1350'> +3.1887698e+11 </wgt>
<wgt id='1351'> +2.8971369e+11 </wgt>
<wgt id='1352'> +3.0706900e+11 </wgt>
<wgt id='1353'> +3.0507674e+11 </wgt>
<wgt id='1354'> +3.1370742e+11 </wgt>
<wgt id='1355'> +2.8151943e+11 </wgt>
<wgt id='1356'> +2.8398881e+11 </wgt>
<wgt id='1357'> +2.8261136e+11 </wgt>
<wgt id='1358'> +2.8021360e+11 </wgt>
<wgt id='1359'> +2.7977173e+11 </wgt>
<wgt id='1360'> +2.7706007e+11 </wgt>
<wgt id='1361'> +2.7981015e+11 </wgt>
<wgt id='1362'> +2.9055526e+11 </wgt>
<wgt id='1363'> +2.8127531e+11 </wgt>
<wgt id='1364'> +2.8846605e+11 </wgt>
<wgt id='1365'> +2.7942378e+11 </wgt>
<wgt id='1366'> +2.7750912e+11 </wgt>
<wgt id='1367'> +2.7968814e+11 </wgt>
<wgt id='1368'> +2.8284582e+11 </wgt>
<wgt id='1369'> +2.8504774e+11 </wgt>
<wgt id='1370'> +2.7640336e+11 </wgt>
<wgt id='1371'> +2.8115886e+11 </wgt>
<wgt id='1372'> +2.8038254e+11 </wgt>
<wgt id='1373'> +2.8546121e+11 </wgt>
<wgt id='1374'> +2.7635637e+11 </wgt>
<wgt id='1375'> +2.8347841e+11 </wgt>
<wgt id='1376'> +2.8056258e+11 </wgt>
<wgt id='1377'> +2.8149934e+11 </wgt>
<wgt id='1378'> +2.8385511e+11 </wgt>
<wgt id='1379'> +2.7971538e+11 </wgt>
<wgt id='1380'> +2.7893506e+11 </wgt>
<wgt id='1381'> +2.8540898e+11 </wgt>
<wgt id='1382'> +2.7945812e+11 </wgt>
<wgt id='1383'> +2.7812528e+11 </wgt>
<wgt id='1384'> +2.7568883e+11 </wgt>
<wgt id='1385'> +2.7564949e+11 </wgt>
<wgt id='1386'> +2.7811952e+11 </wgt>
<wgt id='1387'> +2.7982090e+11 </wgt>
<wgt id='1388'> +2.7715832e+11 </wgt>
<wgt id='1389'> +2.7936207e+11 </wgt>
<wgt id='1390'> +2.8483460e+11 </wgt>
<wgt id='1391'> +2.8200562e+11 </wgt>
<wgt id='1392'> +2.7614934e+11 </wgt>
<wgt id='1393'> +2.8391074e+11 </wgt>
<wgt id='1394'> +2.8162493e+11 </wgt>
<wgt id='1395'> +2.7587159e+11 </wgt>
<wgt id='1396'> +2.8175028e+11 </wgt>
<wgt id='1397'> +2.8169893e+11 </wgt>
<wgt id='1398'> +2.8703607e+11 </wgt>
<wgt id='1399'> +2.7990059e+11 </wgt>
<wgt id='1400'> +2.7556945e+11 </wgt>
<wgt id='1401'> +2.8231834e+11 </wgt>
<wgt id='1402'> +2.8366565e+11 </wgt>
<wgt id='1403'> +2.9224257e+11 </wgt>
<wgt id='1404'> +2.8603516e+11 </wgt>
<wgt id='1405'> +2.8990124e+11 </wgt>
<wgt id='1406'> +2.8608603e+11 </wgt>
<wgt id='1407'> +2.8324200e+11 </wgt>
<wgt id='1408'> +2.9055262e+11 </wgt>
<wgt id='1409'> +2.7553390e+11 </wgt>
<wgt id='1410'> +2.7338770e+11 </wgt>
<wgt id='1411'> +2.8121728e+11 </wgt>
<wgt id='1412'> +2.8189962e+11 </wgt>
<wgt id='1413'> +2.8617350e+11 </wgt>
<wgt id='1414'> +2.8407476e+11 </wgt>
<wgt id='1415'> +2.7912069e+11 </wgt>
<wgt id='1416'> +2.8207786e+11 </wgt>
<wgt id='1417'> +2.7963907e+11 </wgt>
<wgt id='1418'> +2.7985046e+11 </wgt>
<wgt id='1419'> +2.8450258e+11 </wgt>
<wgt id='1420'> +2.7454813e+11 </wgt>
<wgt id='1421'> +2.8875828e+11 </wgt>
<wgt id='1422'> +2.7383977e+11 </wgt>
<wgt id='1423'> +2.8481151e+11 </wgt>
<wgt id='1424'> +2.8120454e+11 </wgt>
<wgt id='1425'> +2.8157469e+11 </wgt>
<wgt id='1426'> +2.8416334e+11 </wgt>
<wgt id='1427'> +2.7936747e+11 </wgt>
<wgt id='1428'> +2.7902402e+11 </wgt>
<wgt id='1429'> +2.8285102e+11 </wgt>
<wgt id='1430'> +2.7829180e+11 </wgt>
<wgt id='1431'> +2.7913894e+11 </wgt>
<wgt id='1432'> +2.7648423e+11 </wgt>
<wgt id='1433'> +2.7542971e+11 </wgt>
<wgt id='1434'> +2.8775839e+11 </wgt>
<wgt id='1435'> +2.8122298e+11 </wgt>
<wgt id='1436'> +2.8554487e+11 </wgt>
<wgt id='1437'> +2.7944596e+11 </wgt>
<wgt id='1438'> +2.8141534e+11 </wgt>
<wgt id='1439'> +2.8936483e+11 </wgt>
<wgt id='1440'> +2.8155897e+11 </wgt>
<wgt id='1441'> +2.7703387e+11 </wgt>
<wgt id='1442'> +2.8326755e+11 </wgt>
<wgt id='1443'> +2.7716267e+11 </wgt>
<wgt id='1444'> +2.8909227e+11 </wgt>
<wgt id='1445'> +2.7972514e+11 </wgt>
<wgt id='1446'> +2.9131567e+11 </wgt>
<wgt id='1447'> +2.8217322e+11 </wgt>
<wgt id='1448'> +2.8429582e+11 </wgt>
<wgt id='1449'> +2.8453227e+11 </wgt>
<wgt id='1450'> +2.8061368e+11 </wgt>
<wgt id='1451'> +2.8092644e+11 </wgt>
<wgt id='1452'> +2.8380055e+11 </wgt>
<wgt id='1453'> +2.8344305e+11 </wgt>
<wgt id='1454'> +2.7226822e+11 </wgt>
<wgt id='1455'> +2.7982806e+11 </wgt>
<wgt id='1456'> +2.7964270e+11 </wgt>
<wgt id='1457'> +2.8155072e+11 </wgt>
<wgt id='1458'> +2.8905675e+11 </wgt>
<wgt id='1459'> +3.1410941e+11 </wgt>
<wgt id='1460'> +3.0871536e+11 </wgt>
<wgt id='1461'> +3.7111656e+11 </wgt>
<wgt id='1462'> +3.0262269e+11 </wgt>
<wgt id='1463'> +3.0283947e+11 </wgt>
<wgt id='1464'> +3.0234465e+11 </wgt>
<wgt id='1465'> +3.0269167e+11 </wgt>
<wgt id='1466'> +3.0255967e+11 </wgt>
<wgt id='1467'> +3.0272871e+11 </wgt>
<wgt id='1468'> +3.0244871e+11 </wgt>
<wgt id='1469'> +3.0219190e+11 </wgt>
<wgt id='1470'> +3.0297253e+11 </wgt>
<wgt id='1471'> +3.0306806e+11 </wgt>
<wgt id='1472'> +3.0216391e+11 </wgt>
<wgt id='1473'> +3.0383541e+11 </wgt>
<wgt id='1474'> +3.0145783e+11 </wgt>
<wgt id='1475'> +3.0376886e+11 </wgt>
<wgt id='1476'> +3.0181023e+11 </wgt>
<wgt id='1477'> +3.0207825e+11 </wgt>
<wgt id='1478'> +3.0389479e+11 </wgt>
<wgt id='1479'> +3.0233608e+11 </wgt>
<wgt id='1480'> +3.0282853e+11 </wgt>
<wgt id='1481'> +3.0202485e+11 </wgt>
<wgt id='1482'> +3.0343208e+11 </wgt>
<wgt id='1483'> +3.0267166e+11 </wgt>
<wgt id='1484'> +3.0255806e+11 </wgt>
<wgt id='1485'> +3.0283186e+11 </wgt>
<wgt id='1486'> +3.0211880e+11 </wgt>
<wgt id='1487'> +3.0291038e+11 </wgt>
<wgt id='1488'> +3.0226341e+11 </wgt>
<wgt id='1489'> +3.0224045e+11 </wgt>
<wgt id='1490'> +3.0365941e+11 </wgt>
<wgt id='1491'> +3.0772463e+11 </wgt>
<wgt id='1492'> +2.9978106e+11 </wgt>
<wgt id='1493'> +2.9889792e+11 </wgt>
<wgt id='1494'> +3.1430658e+11 </wgt>
<wgt id='1495'> +3.0174358e+11 </wgt>
<wgt id='1496'> +3.0356708e+11 </wgt>
<wgt id='1497'> +3.0283962e+11 </wgt>
<wgt id='1498'> +3.0232661e+11 </wgt>
<wgt id='1499'> +3.0478607e+11 </wgt>
<wgt id='1500'> +3.0144210e+11 </wgt>
<wgt id='1501'> +3.0293255e+11 </wgt>
<wgt id='1502'> +3.0181139e+11 </wgt>
<wgt id='1503'> +2.9805185e+11 </wgt>
<wgt id='1504'> +3.0777229e+11 </wgt>
<wgt id='1505'> +3.0323689e+11 </wgt>
<wgt id='1506'> +3.0201401e+11 </wgt>
<wgt id='1507'> +3.0636037e+11 </wgt>
<wgt id='1508'> +2.9646875e+11 </wgt>
<wgt id='1509'> +3.0345558e+11 </wgt>
<wgt id='1510'> +2.9902807e+11 </wgt>
<wgt id='1511'> +3.0386522e+11 </wgt>
<wgt id='1512'> +3.0227076e+11 </wgt>
<wgt id='1513'> +3.0242081e+11 </wgt>
<wgt id='1514'> +3.0286330e+11 </wgt>
<wgt id='1515'> +3.0670515e+11 </wgt>
<wgt id='1516'> +3.0199042e+11 </wgt>
<wgt id='1517'> +3.0205357e+11 </wgt>
<wgt id='1518'> +3.0344835e+11 </wgt>
<wgt id='1519'> +3.0055545e+11 </wgt>
<wgt id='1520'> +3.0408587e+11 </wgt>
<wgt id='1521'> +3.0129250e+11 </wgt>
<wgt id='1522'> +3.0336753e+11 </wgt>
<wgt id='1523'> +3.0380874e+11 </wgt>
<wgt id='1524'> +3.0433600e+11 </wgt>
<wgt id='1525'> +3.0326095e+11 </wgt>
<wgt id='1526'> +3.0423767e+11 </wgt>
<wgt id='1527'> +3.0262269e+11 </wgt>
<wgt id='1528'> +3.0127757e+11 </wgt>
<wgt id='1529'> +3.0373288e+11 </wgt>
<wgt id='1530'> +2.9803461e+11 </wgt>
<wgt id='1531'> +3.0699732e+11 </wgt>
<wgt id='1532'> +3.0685634e+11 </wgt>
<wgt id='1533'> +3.0126337e+11 </wgt>
<wgt id='1534'> +3.0526256e+11 </wgt>
<wgt id='1535'> +3.1041521e+11 </wgt>
<wgt id='1536'> +3.0351049e+11 </wgt>
<wgt id='1537'> +3.0909970e+11 </wgt>
<wgt id='1538'> +3.0277562e+11 </wgt>
<wgt id='1539'> +3.1206959e+11 </wgt>
<wgt id='1540'> +3.0850040e+11 </wgt>
<wgt id='1541'> +3.0885183e+11 </wgt>
<wgt id='1542'> +3.0721496e+11 </wgt>
<wgt id='1543'> +3.0899157e+11 </wgt>
<wgt id='1544'> +3.0533109e+11 </wgt>
<wgt id='1545'> +3.0497937e+11 </wgt>
<wgt id='1546'> +3.0324739e+11 </wgt>
<wgt id='1547'> +3.0927148e+11 </wgt>
<wgt id='1548'> +3.0590115e+11 </wgt>
<wgt id='1549'> +3.0342351e+11 </wgt>
<wgt id='1550'> +3.0939381e+11 </wgt>
<wgt id='1551'> +3.0761213e+11 </wgt>
<wgt id='1552'> +3.0720132e+11 </wgt>
<wgt id='1553'> +3.1254838e+11 </wgt>
<wgt id='1554'> +3.0731602e+11 </wgt>
<wgt id='1555'> +3.0803904e+11 </wgt>
<wgt id='1556'> +3.0900196e+11 </wgt>
<wgt id='1557'> +3.0668818e+11 </wgt>
<wgt id='1558'> +3.0736969e+11 </wgt>
<wgt id='1559'> +3.0433806e+11 </wgt>
<wgt id='1560'> +3.0600133e+11 </wgt>
<wgt id='1561'> +3.0518647e+11 </wgt>
<wgt id='1562'> +3.0504834e+11 </wgt>
<wgt id='1563'> +3.0730355e+11 </wgt>
<wgt id='1564'> +3.0672781e+11 </wgt>
<wgt id='1565'> +3.1019520e+11 </wgt>
<wgt id='1566'> +3.0699059e+11 </wgt>
<wgt id='1567'> +3.0775974e+11 </wgt>
<wgt id='1568'> +3.0683427e+11 </wgt>
<wgt id='1569'> +3.0631748e+11 </wgt>
<wgt id='1570'> +3.1393558e+11 </wgt>
<wgt id='1571'> +3.0708963e+11 </wgt>
<wgt id='1572'> +3.0855382e+11 </wgt>
<wgt id='1573'> +3.1164017e+11 </wgt>
<wgt id='1574'> +2.5246446e+11 </wgt>
<wgt id='1575'> +2.5253010e+11 </wgt>
<wgt id='1576'> +2.5239567e+11 </wgt>
<wgt id='1577'> +2.5248234e+11 </wgt>
<wgt id='1578'> +2.5304663e+11 </wgt>
<wgt id='1579'> +2.5324517e+11 </wgt>
<wgt id='1580'> +2.5300965e+11 </wgt>
<wgt id='1581'> +2.5202204e+11 </wgt>
<wgt id='1582'> +2.5176174e+11 </wgt>
<wgt id='1583'> +2.5199631e+11 </wgt>
<wgt id='1584'> +2.5302669e+11 </wgt>
<wgt id='1585'> +2.5273076e+11 </wgt>
<wgt id='1586'> +2.5170945e+11 </wgt>
<wgt id='1587'> +2.5183772e+11 </wgt>
<wgt id='1588'> +2.5140794e+11 </wgt>
<wgt id='1589'> +2.5212653e+11 </wgt>
<wgt id='1590'> +2.5231845e+11 </wgt>
<wgt id='1591'> +2.5254697e+11 </wgt>
<wgt id='1592'> +2.5149987e+11 </wgt>
<wgt id='1593'> +2.5132784e+11 </wgt>
<wgt id='1594'> +2.5357600e+11 </wgt>
<wgt id='1595'> +2.4987113e+11 </wgt>
<wgt id='1596'> +2.5685052e+11 </wgt>
<wgt id='1597'> +2.5429427e+11 </wgt>
<wgt id='1598'> +2.5439466e+11 </wgt>
<wgt id='1599'> +2.4939097e+11 </wgt>
<wgt id='1600'> +2.5747796e+11 </wgt>
<wgt id='1601'> +2.5462800e+11 </wgt>
<wgt id='1602'> +2.5253307e+11 </wgt>
<wgt id='1603'> +2.6716822e+11 </wgt>
<wgt id='1604'> +2.5263604e+11 </wgt>
</rwgt>
</event>
<event>
 9      1 +2.8343000e+11 1.39999300e+03 7.81738600e-03 7.88881600e-02
       21 -1    0    0  504  503 +0.0000000000e+00 +0.0000000000e+00 +2.4101575247e+03 2.4101575247e+03 0.0000000000e+00 0.0000e+00 -1.0000e+00
       21 -1    0    0  503  504 -0.0000000000e+00 -0.0000000000e+00 -2.0330415632e+02 2.0330415632e+02 0.0000000000e+00 0.0000e+00 -1.0000e+00
       45  2    1    2    0    0 -7.1054273576e-15 +0.0000000000e+00 +2.2068533684e+03 2.6134616810e+03 1.3999929173e+03 0.0000e+00 0.0000e+00
       25  2    3    3    0    0 -2.7351803834e+00 -4.1897850783e+02 +2.1345356805e+03 2.1788572184e+03 1.2500294242e+02 0.0000e+00 0.0000e+00
       35  2    3    3    0    0 +2.7351803834e+00 +4.1897850783e+02 +7.2317687864e+01 4.3460446261e+02 9.0003998273e+01 0.0000e+00 0.0000e+00
        5  1    5    5  501    0 +3.8065525063e+01 +9.2234543839e+01 +1.7038584097e+01 1.0131271598e+02 4.2140000000e+00 0.0000e+00 1.0000e+00
       -5  1    5    5    0  501 -3.5330344680e+01 +3.2674396399e+02 +5.5279103766e+01 3.3329174662e+02 4.2140000000e+00 0.0000e+00 1.0000e+00
        5  1    4    4  502    0 +5.0258331785e+01 -8.3973012787e+01 +4.6060016889e+02 4.7090088147e+02 4.2140000000e+00 0.0000e+00 1.0000e+00
       -5  1    4    4    0  502 -5.2993512168e+01 -3.3500549504e+02 +1.6739355116e+03 1.7079563369e+03 4.2140000000e+00 0.0000e+00 1.0000e+00
<mgrwt>
<rscale>  0 0.13999929E+04</rscale>
<asrwt>0</asrwt>
<pdfrwt beam="1">  1       21 0.37079345E+00 0.13999929E+04</pdfrwt>
<pdfrwt beam="2">  1       21 0.31277564E-01 0.13999929E+04</pdfrwt>
<totfact> 0.70948419E+01</totfact>
</mgrwt>
<rwgt>
<wgt id='1001'> +2.8343000e+11 </wgt>
<wgt id='1002'> +3.1141596e+11 </wgt>
<wgt id='1003'> +3.1140768e+11 </wgt>
<wgt id='1004'> +3.5956360e+11 </wgt>
<wgt id='1005'> +2.8343000e+11 </wgt>
<wgt id='1006'> +2.8343000e+11 </wgt>
<wgt id='1007'> +3.1141596e+11 </wgt>
<wgt id='1008'> +3.1140768e+11 </wgt>
<wgt id='1009'> +3.5956360e+11 </wgt>
<wgt id='1010'> +2.8343000e+11 </wgt>
<wgt id='1011'> +2.8343000e+11 </wgt>
<wgt id='1012'> +3.1141596e+11 </wgt>
<wgt id='1013'> +3.1140768e+11 </wgt>
<wgt id='1014'> +3.5956360e+11 </wgt>
<wgt id='1015'> +2.8343000e+11 </wgt>
<wgt id='1016'> +2.4923243e+11 </wgt>
<wgt id='1017'> +2.7223506e+11 </wgt>
<wgt id='1018'> +2.7222827e+11 </wgt>
<wgt id='1019'> +3.1140768e+11 </wgt>
<wgt id='1020'> +2.4923243e+11 </wgt>
<wgt id='1021'> +2.4923243e+11 </wgt>
<wgt id='1022'> +2.7223506e+11 </wgt>
<wgt id='1023'> +2.7222827e+11 </wgt>
<wgt id='1024'> +3.1140768e+11 </wgt>
<wgt id='1025'> +2.4923243e+11 </wgt>
<wgt id='1026'> +2.4923243e+11 </wgt>
<wgt id='1027'> +2.7223506e+11 </wgt>
<wgt id='1028'> +2.7222827e+11 </wgt>
<wgt id='1029'> +3.1140768e+11 </wgt>
<wgt id='1030'> +2.4923243e+11 </wgt>
<wgt id='1031'> +3.2509156e+11 </wgt>
<wgt id='1032'> +3.5957388e+11 </wgt>
<wgt id='1033'> +3.5956360e+11 </wgt>
<wgt id='1034'> +4.1949773e+11 </wgt>
<wgt id='1035'> +3.2509156e+11 </wgt>
<wgt id='1036'> +3.2509156e+11 </wgt>
<wgt id='1037'> +3.5957388e+11 </wgt>
<wgt id='1038'> +3.5956360e+11 </wgt>
<wgt id='1039'> +4.1949773e+11 </wgt>
<wgt id='1040'> +3.2509156e+11 </wgt>
<wgt id='1041'> +3.2509156e+11 </wgt>
<wgt id='1042'> +3.5957388e+11 </wgt>
<wgt id='1043'> +3.5956360e+11 </wgt>
<wgt id='1044'> +4.1949773e+11 </wgt>
<wgt id='1045'> +3.2509156e+11 </wgt>
<wgt id='1046'> +2.8343000e+11 </wgt>
<wgt id='1047'> +2.8343000e+11 </wgt>
<wgt id='1048'> +2.8343000e+11 </wgt>
<wgt id='1049'> +2.8296670e+11 </wgt>
<wgt id='1050'> +2.8101066e+11 </wgt>
<wgt id='1051'> +2.8337550e+11 </wgt>
<wgt id='1052'> +2.8324115e+11 </wgt>
<wgt id='1053'> +2.8185316e+11 </wgt>
<wgt id='1054'> +2.8724108e+11 </wgt>
<wgt id='1055'> +2.8178424e+11 </wgt>
<wgt id='1056'> +2.8073932e+11 </wgt>
<wgt id='1057'> +2.8337825e+11 </wgt>
<wgt id='1058'> +2.8450668e+11 </wgt>
<wgt id='1059'> +2.8519960e+11 </wgt>
<wgt id='1060'> +2.8205612e+11 </wgt>
<wgt id='1061'> +2.8483519e+11 </wgt>
<wgt id='1062'> +2.8644991e+11 </wgt>
<wgt id='1063'> +2.8436750e+11 </wgt>
<wgt id='1064'> +2.8703958e+11 </wgt>
<wgt id='1065'> +2.8529314e+11 </wgt>
<wgt id='1066'> +2.8318897e+11 </wgt>
<wgt id='1067'> +2.8351747e+11 </wgt>
<wgt id='1068'> +2.8495885e+11 </wgt>
<wgt id='1069'> +2.8129365e+11 </wgt>
<wgt id='1070'> +2.7962325e+11 </wgt>
<wgt id='1071'> +2.8691934e+11 </wgt>
<wgt id='1072'> +2.7592649e+11 </wgt>
<wgt id='1073'> +2.8586417e+11 </wgt>
<wgt id='1074'> +2.8505058e+11 </wgt>
<wgt id='1075'> +2.8046318e+11 </wgt>
<wgt id='1076'> +2.8557048e+11 </wgt>
<wgt id='1077'> +2.8023273e+11 </wgt>
<wgt id='1078'> +2.7616322e+11 </wgt>
<wgt id='1079'> +2.8500047e+11 </wgt>
<wgt id='1080'> +2.8646672e+11 </wgt>
<wgt id='1081'> +2.8422228e+11 </wgt>
<wgt id='1082'> +2.8165168e+11 </wgt>
<wgt id='1083'> +2.8282567e+11 </wgt>
<wgt id='1084'> +2.8545390e+11 </wgt>
<wgt id='1085'> +2.8198674e+11 </wgt>
<wgt id='1086'> +2.8590947e+11 </wgt>
<wgt id='1087'> +2.8497396e+11 </wgt>
<wgt id='1088'> +2.8367410e+11 </wgt>
<wgt id='1089'> +2.8240947e+11 </wgt>
<wgt id='1090'> +2.8452232e+11 </wgt>
<wgt id='1091'> +2.8360488e+11 </wgt>
<wgt id='1092'> +2.8298143e+11 </wgt>
<wgt id='1093'> +2.8222722e+11 </wgt>
<wgt id='1094'> +2.8061823e+11 </wgt>
<wgt id='1095'> +2.8362645e+11 </wgt>
<wgt id='1096'> +2.8440258e+11 </wgt>
<wgt id='1097'> +2.8292311e+11 </wgt>
<wgt id='1098'> +2.8405009e+11 </wgt>
<wgt id='1099'> +2.8420264e+11 </wgt>
<wgt id='1100'> +2.8344958e+11 </wgt>
<wgt id='1101'> +2.8368606e+11 </wgt>
<wgt id='1102'> +2.8309906e+11 </wgt>
<wgt id='1103'> +2.8030388e+11 </wgt>
<wgt id='1104'> +2.8394683e+11 </wgt>
<wgt id='1105'> +2.8399994e+11 </wgt>
<wgt id='1106'> +2.8405272e+11 </wgt>
<wgt id='1107'> +2.8426557e+11 </wgt>
<wgt id='1108'> +2.8306514e+11 </wgt>
<wgt id='1109'> +2.8425145e+11 </wgt>
<wgt id='1110'> +2.8313013e+11 </wgt>
<wgt id='1111'> +2.8581257e+11 </wgt>
<wgt id='1112'> +2.8258255e+11 </wgt>
<wgt id='1113'> +2.8355160e+11 </wgt>
<wgt id='1114'> +2.8306208e+11 </wgt>
<wgt id='1115'> +2.8103151e+11 </wgt>
<wgt id='1116'> +2.8502809e+11 </wgt>
<wgt id='1117'> +2.8282319e+11 </wgt>
<wgt id='1118'> +2.8521565e+11 </wgt>
<wgt id='1119'> +2.8196598e+11 </wgt>
<wgt id='1120'> +2.8127115e+11 </wgt>
<wgt id='1121'> +2.8292895e+11 </wgt>
<wgt id='1122'> +2.8213164e+11 </wgt>
<wgt id='1123'> +2.8348489e+11 </wgt>
<wgt id='1124'> +2.8440059e+11 </wgt>
<wgt id='1125'> +2.8359408e+11 </wgt>
<wgt id='1126'> +2.8360565e+11 </wgt>
<wgt id='1127'> +2.8359874e+11 </wgt>
<wgt id='1128'> +2.8314896e+11 </wgt>
<wgt id='1129'> +2.8264988e+11 </wgt>
<wgt id='1130'> +2.8341848e+11 </wgt>
<wgt id='1131'> +2.8533095e+11 </wgt>
<wgt id='1132'> +2.8290816e+11 </wgt>
<wgt id='1133'> +2.8382009e+11 </wgt>
<wgt id='1134'> +2.8340534e+11 </wgt>
<wgt id='1135'> +2.8366336e+11 </wgt>
<wgt id='1136'> +2.8280490e+11 </wgt>
<wgt id='1137'> +2.8269867e+11 </wgt>
<wgt id='1138'> +2.8360431e+11 </wgt>
<wgt id='1139'> +2.8395331e+11 </wgt>
<wgt id='1140'> +2.8409716e+11 </wgt>
<wgt id='1141'> +2.8274034e+11 </wgt>
<wgt id='1142'> +2.8351001e+11 </wgt>
<wgt id='1143'> +2.8409945e+11 </wgt>
<wgt id='1144'> +2.8341535e+11 </wgt>
<wgt id='1145'> +2.8385376e+11 </wgt>
<wgt id='1146'> +2.8391031e+11 </wgt>
<wgt id='1147'> +2.8360364e+11 </wgt>
<wgt id='1148'> +2.8343000e+11 </wgt>
<wgt id='1149'> +2.8343000e+11 </wgt>
<wgt id='1150'> +2.7879663e+11 </wgt>
<wgt id='1151'> +2.8522736e+11 </wgt>
<wgt id='1152'> +2.9787869e+11 </wgt>
<wgt id='1153'> +2.9080376e+11 </wgt>
<wgt id='1154'> +2.5787202e+11 </wgt>
<wgt id='1155'> +3.0550122e+11 </wgt>
<wgt id='1156'> +2.8871839e+11 </wgt>
<wgt id='1157'> +2.8706222e+11 </wgt>
<wgt id='1158'> +3.0339289e+11 </wgt>
<wgt id='1159'> +2.9643813e+11 </wgt>
<wgt id='1160'> +2.4860199e+11 </wgt>
<wgt id='1161'> +2.9910056e+11 </wgt>
<wgt id='1162'> +2.6975706e+11 </wgt>
<wgt id='1163'> +2.8152560e+11 </wgt>
<wgt id='1164'> +2.4610585e+11 </wgt>
<wgt id='1165'> +2.8569688e+11 </wgt>
<wgt id='1166'> +2.7729409e+11 </wgt>
<wgt id='1167'> +2.7781421e+11 </wgt>
<wgt id='1168'> +2.5171412e+11 </wgt>
<wgt id='1169'> +2.5281418e+11 </wgt>
<wgt id='1170'> +2.8568261e+11 </wgt>
<wgt id='1171'> +2.6374840e+11 </wgt>
<wgt id='1172'> +2.5680202e+11 </wgt>
<wgt id='1173'> +2.8794056e+11 </wgt>
<wgt id='1174'> +2.8961453e+11 </wgt>
<wgt id='1175'> +2.9154281e+11 </wgt>
<wgt id='1176'> +2.9587162e+11 </wgt>
<wgt id='1177'> +3.1032811e+11 </wgt>
<wgt id='1178'> +2.7569528e+11 </wgt>
<wgt id='1179'> +3.0139405e+11 </wgt>
<wgt id='1180'> +3.0537525e+11 </wgt>
<wgt id='1181'> +2.5024261e+11 </wgt>
<wgt id='1182'> +2.6628926e+11 </wgt>
<wgt id='1183'> +2.9889566e+11 </wgt>
<wgt id='1184'> +2.8084223e+11 </wgt>
<wgt id='1185'> +2.8431138e+11 </wgt>
<wgt id='1186'> +2.6714502e+11 </wgt>
<wgt id='1187'> +3.1445031e+11 </wgt>
<wgt id='1188'> +3.0472320e+11 </wgt>
<wgt id='1189'> +3.1188559e+11 </wgt>
<wgt id='1190'> +3.0214040e+11 </wgt>
<wgt id='1191'> +3.2208384e+11 </wgt>
<wgt id='1192'> +2.8887688e+11 </wgt>
<wgt id='1193'> +2.9462817e+11 </wgt>
<wgt id='1194'> +2.6774692e+11 </wgt>
<wgt id='1195'> +2.8652993e+11 </wgt>
<wgt id='1196'> +2.6178984e+11 </wgt>
<wgt id='1197'> +2.8733867e+11 </wgt>
<wgt id='1198'> +2.6818528e+11 </wgt>
<wgt id='1199'> +3.0669505e+11 </wgt>
<wgt id='1200'> +2.6564514e+11 </wgt>
<wgt id='1201'> +3.0949086e+11 </wgt>
<wgt id='1202'> +2.7451154e+11 </wgt>
<wgt id='1203'> +2.8271499e+11 </wgt>
<wgt id='1204'> +2.5490148e+11 </wgt>
<wgt id='1205'> +3.0310331e+11 </wgt>
<wgt id='1206'> +2.6660147e+11 </wgt>
<wgt id='1207'> +3.0760849e+11 </wgt>
<wgt id='1208'> +2.9651238e+11 </wgt>
<wgt id='1209'> +2.6331002e+11 </wgt>
<wgt id='1210'> +2.9580861e+11 </wgt>
<wgt id='1211'> +2.9964436e+11 </wgt>
<wgt id='1212'> +2.5479489e+11 </wgt>
<wgt id='1213'> +2.7354150e+11 </wgt>
<wgt id='1214'> +2.7565059e+11 </wgt>
<wgt id='1215'> +2.9855137e+11 </wgt>
<wgt id='1216'> +2.7808337e+11 </wgt>
<wgt id='1217'> +2.7789727e+11 </wgt>
<wgt id='1218'> +2.6373281e+11 </wgt>
<wgt id='1219'> +2.7766138e+11 </wgt>
<wgt id='1220'> +2.6335157e+11 </wgt>
<wgt id='1221'> +2.5335762e+11 </wgt>
<wgt id='1222'> +2.6959995e+11 </wgt>
<wgt id='1223'> +2.8149955e+11 </wgt>
<wgt id='1224'> +2.7930914e+11 </wgt>
<wgt id='1225'> +2.6642783e+11 </wgt>
<wgt id='1226'> +2.7772018e+11 </wgt>
<wgt id='1227'> +2.5952069e+11 </wgt>
<wgt id='1228'> +2.5051232e+11 </wgt>
<wgt id='1229'> +2.8916437e+11 </wgt>
<wgt id='1230'> +2.8426263e+11 </wgt>
<wgt id='1231'> +2.8569688e+11 </wgt>
<wgt id='1232'> +2.8507945e+11 </wgt>
<wgt id='1233'> +2.8525621e+11 </wgt>
<wgt id='1234'> +3.0179411e+11 </wgt>
<wgt id='1235'> +3.0865026e+11 </wgt>
<wgt id='1236'> +3.0693386e+11 </wgt>
<wgt id='1237'> +2.9724974e+11 </wgt>
<wgt id='1238'> +3.2246143e+11 </wgt>
<wgt id='1239'> +3.0358861e+11 </wgt>
<wgt id='1240'> +3.0758460e+11 </wgt>
<wgt id='1241'> +2.6438590e+11 </wgt>
<wgt id='1242'> +2.8902522e+11 </wgt>
<wgt id='1243'> +2.6219627e+11 </wgt>
<wgt id='1244'> +2.8869898e+11 </wgt>
<wgt id='1245'> +2.9938614e+11 </wgt>
<wgt id='1246'> +3.0678386e+11 </wgt>
<wgt id='1247'> +2.6890199e+11 </wgt>
<wgt id='1248'> +2.7607198e+11 </wgt>
<wgt id='1249'> +2.7902714e+11 </wgt>
<wgt id='1250'> +2.9834234e+11 </wgt>
<wgt id='1251'> +3.1530295e+11 </wgt>
<wgt id='1252'> +2.8068519e+11 </wgt>
<wgt id='1253'> +3.2672126e+11 </wgt>
<wgt id='1254'> +2.9188331e+11 </wgt>
<wgt id='1255'> +3.1739055e+11 </wgt>
<wgt id='1256'> +3.2325238e+11 </wgt>
<wgt id='1257'> +2.6255772e+11 </wgt>
<wgt id='1258'> +3.0524155e+11 </wgt>
<wgt id='1259'> +3.4375593e+11 </wgt>
<wgt id='1260'> +3.8734560e+11 </wgt>
<wgt id='1261'> +3.8629484e+11 </wgt>
<wgt id='1262'> +3.1316785e+11 </wgt>
<wgt id='1263'> +3.2025886e+11 </wgt>
<wgt id='1264'> +3.0073238e+11 </wgt>
<wgt id='1265'> +2.7008814e+11 </wgt>
<wgt id='1266'> +2.9441910e+11 </wgt>
<wgt id='1267'> +4.5291999e+11 </wgt>
<wgt id='1268'> +2.6402327e+11 </wgt>
<wgt id='1269'> +2.5844253e+11 </wgt>
<wgt id='1270'> +3.4368530e+11 </wgt>
<wgt id='1271'> +2.0262679e+11 </wgt>
<wgt id='1272'> +3.0137965e+11 </wgt>
<wgt id='1273'> +2.9469249e+11 </wgt>
<wgt id='1274'> +3.0295996e+11 </wgt>
<wgt id='1275'> +2.8814342e+11 </wgt>
<wgt id='1276'> +3.2853805e+11 </wgt>
<wgt id='1277'> +3.5979982e+11 </wgt>
<wgt id='1278'> +3.2612934e+11 </wgt>
<wgt id='1279'> +2.6217197e+11 </wgt>
<wgt id='1280'> +3.4751911e+11 </wgt>
<wgt id='1281'> +2.7695316e+11 </wgt>
<wgt id='1282'> +2.8475811e+11 </wgt>
<wgt id='1283'> +3.4678839e+11 </wgt>
<wgt id='1284'> +2.7938307e+11 </wgt>
<wgt id='1285'> +2.5996975e+11 </wgt>
<wgt id='1286'> +3.9909952e+11 </wgt>
<wgt id='1287'> +4.1113167e+11 </wgt>
<wgt id='1288'> +4.4516827e+11 </wgt>
<wgt id='1289'> +3.5172960e+11 </wgt>
<wgt id='1290'> +3.2492846e+11 </wgt>
<wgt id='1291'> +2.8999362e+11 </wgt>
<wgt id='1292'> +3.1944855e+11 </wgt>
<wgt id='1293'> +3.0097404e+11 </wgt>
<wgt id='1294'> +4.2517324e+11 </wgt>
<wgt id='1295'> +3.2857966e+11 </wgt>
<wgt id='1296'> +4.1963153e+11 </wgt>
<wgt id='1297'> +2.6591569e+11 </wgt>
<wgt id='1298'> +2.9110281e+11 </wgt>
<wgt id='1299'> +3.0617896e+11 </wgt>
<wgt id='1300'> +2.3378514e+11 </wgt>
<wgt id='1301'> +2.4161493e+11 </wgt>
<wgt id='1302'> +2.5637642e+11 </wgt>
<wgt id='1303'> +3.0342577e+11 </wgt>
<wgt id='1304'> +3.8835400e+11 </wgt>
<wgt id='1305'> +2.9052673e+11 </wgt>
<wgt id='1306'> +3.0245318e+11 </wgt>
<wgt id='1307'> +2.6575129e+11 </wgt>
<wgt id='1308'> +3.5535433e+11 </wgt>
<wgt id='1309'> +3.2601612e+11 </wgt>
<wgt id='1310'> +3.0504666e+11 </wgt>
<wgt id='1311'> +2.7986068e+11 </wgt>
<wgt id='1312'> +3.8499875e+11 </wgt>
<wgt id='1313'> +3.4780640e+11 </wgt>
<wgt id='1314'> +2.5016402e+11 </wgt>
<wgt id='1315'> +2.5968615e+11 </wgt>
<wgt id='1316'> +2.9755687e+11 </wgt>
<wgt id='1317'> +4.0202301e+11 </wgt>
<wgt id='1318'> +2.8306887e+11 </wgt>
<wgt id='1319'> +2.9496278e+11 </wgt>
<wgt id='1320'> +3.3919811e+11 </wgt>
<wgt id='1321'> +3.3087950e+11 </wgt>
<wgt id='1322'> +3.1957597e+11 </wgt>
<wgt id='1323'> +2.4518336e+11 </wgt>
<wgt id='1324'> +3.3800782e+11 </wgt>
<wgt id='1325'> +3.2639451e+11 </wgt>
<wgt id='1326'> +3.5124582e+11 </wgt>
<wgt id='1327'> +3.4767804e+11 </wgt>
<wgt id='1328'> +3.3794463e+11 </wgt>
<wgt id='1329'> +2.6784772e+11 </wgt>
<wgt id='1330'> +2.6045376e+11 </wgt>
<wgt id='1331'> +3.4066630e+11 </wgt>
<wgt id='1332'> +3.3749883e+11 </wgt>
<wgt id='1333'> +3.0779800e+11 </wgt>
<wgt id='1334'> +3.6511162e+11 </wgt>
<wgt id='1335'> +2.4763798e+11 </wgt>
<wgt id='1336'> +3.9998997e+11 </wgt>
<wgt id='1337'> +3.1732302e+11 </wgt>
<wgt id='1338'> +2.6759832e+11 </wgt>
<wgt id='1339'> +2.7475911e+11 </wgt>
<wgt id='1340'> +3.7148011e+11 </wgt>
<wgt id='1341'> +4.3901650e+11 </wgt>
<wgt id='1342'> +2.6775988e+11 </wgt>
<wgt id='1343'> +3.2450206e+11 </wgt>
<wgt id='1344'> +3.5021737e+11 </wgt>
<wgt id='1345'> +1.8830183e+11 </wgt>
<wgt id='1346'> +2.9911090e+11 </wgt>
<wgt id='1347'> +3.0724044e+11 </wgt>
<wgt id='1348'> +2.5732403e+11 </wgt>
<wgt id='1349'> +2.7285526e+11 </wgt>
<wgt id='1350'> +3.9227987e+11 </wgt>
<wgt id='1351'> +2.8643492e+11 </wgt>
<wgt id='1352'> +3.1935982e+11 </wgt>
<wgt id='1353'> +3.2793596e+11 </wgt>
<wgt id='1354'> +3.2172893e+11 </wgt>
<wgt id='1355'> +2.7737810e+11 </wgt>
<wgt id='1356'> +2.8569879e+11 </wgt>
<wgt id='1357'> +2.8096728e+11 </wgt>
<wgt id='1358'> +2.6663443e+11 </wgt>
<wgt id='1359'> +2.7847060e+11 </wgt>
<wgt id='1360'> +2.6611696e+11 </wgt>
<wgt id='1361'> +2.7836077e+11 </wgt>
<wgt id='1362'> +2.8327068e+11 </wgt>
<wgt id='1363'> +2.6629046e+11 </wgt>
<wgt id='1364'> +3.0728030e+11 </wgt>
<wgt id='1365'> +2.7092178e+11 </wgt>
<wgt id='1366'> +2.8329038e+11 </wgt>
<wgt id='1367'> +2.6918934e+11 </wgt>
<wgt id='1368'> +2.9640286e+11 </wgt>
<wgt id='1369'> +2.7920039e+11 </wgt>
<wgt id='1370'> +2.6129537e+11 </wgt>
<wgt id='1371'> +2.6134620e+11 </wgt>
<wgt id='1372'> +2.6494204e+11 </wgt>
<wgt id='1373'> +2.9877201e+11 </wgt>
<wgt id='1374'> +2.7244502e+11 </wgt>
<wgt id='1375'> +2.8060951e+11 </wgt>
<wgt id='1376'> +2.8178732e+11 </wgt>
<wgt id='1377'> +2.7678974e+11 </wgt>
<wgt id='1378'> +2.8156734e+11 </wgt>
<wgt id='1379'> +2.6854357e+11 </wgt>
<wgt id='1380'> +2.6968816e+11 </wgt>
<wgt id='1381'> +2.8450341e+11 </wgt>
<wgt id='1382'> +2.6254172e+11 </wgt>
<wgt id='1383'> +2.7308131e+11 </wgt>
<wgt id='1384'> +2.5808776e+11 </wgt>
<wgt id='1385'> +2.7505125e+11 </wgt>
<wgt id='1386'> +2.7639250e+11 </wgt>
<wgt id='1387'> +2.8833354e+11 </wgt>
<wgt id='1388'> +2.8080606e+11 </wgt>
<wgt id='1389'> +2.6449208e+11 </wgt>
<wgt id='1390'> +2.7874001e+11 </wgt>
<wgt id='1391'> +2.9759813e+11 </wgt>
<wgt id='1392'> +2.6039058e+11 </wgt>
<wgt id='1393'> +2.8604262e+11 </wgt>
<wgt id='1394'> +2.8904467e+11 </wgt>
<wgt id='1395'> +2.5363985e+11 </wgt>
<wgt id='1396'> +2.7326793e+11 </wgt>
<wgt id='1397'> +2.7375169e+11 </wgt>
<wgt id='1398'> +3.0249155e+11 </wgt>
<wgt id='1399'> +2.6302962e+11 </wgt>
<wgt id='1400'> +2.7394467e+11 </wgt>
<wgt id='1401'> +2.6003993e+11 </wgt>
<wgt id='1402'> +2.8106170e+11 </wgt>
<wgt id='1403'> +2.8945600e+11 </wgt>
<wgt id='1404'> +2.7461844e+11 </wgt>
<wgt id='1405'> +3.0689026e+11 </wgt>
<wgt id='1406'> +2.8893098e+11 </wgt>
<wgt id='1407'> +3.0244641e+11 </wgt>
<wgt id='1408'> +3.0102101e+11 </wgt>
<wgt id='1409'> +2.7326871e+11 </wgt>
<wgt id='1410'> +2.8299169e+11 </wgt>
<wgt id='1411'> +2.7601644e+11 </wgt>
<wgt id='1412'> +3.0257874e+11 </wgt>
<wgt id='1413'> +2.8647498e+11 </wgt>
<wgt id='1414'> +2.8611886e+11 </wgt>
<wgt id='1415'> +2.6780147e+11 </wgt>
<wgt id='1416'> +2.7796696e+11 </wgt>
<wgt id='1417'> +2.5789161e+11 </wgt>
<wgt id='1418'> +2.7164745e+11 </wgt>
<wgt id='1419'> +2.7893407e+11 </wgt>
<wgt id='1420'> +2.5505549e+11 </wgt>
<wgt id='1421'> +2.9485783e+11 </wgt>
<wgt id='1422'> +2.5569002e+11 </wgt>
<wgt id='1423'> +2.7542540e+11 </wgt>
<wgt id='1424'> +2.6628197e+11 </wgt>
<wgt id='1425'> +2.7363042e+11 </wgt>
<wgt id='1426'> +2.8892674e+11 </wgt>
<wgt id='1427'> +2.6715233e+11 </wgt>
<wgt id='1428'> +2.6396584e+11 </wgt>
<wgt id='1429'> +2.7222152e+11 </wgt>
<wgt id='1430'> +2.6563005e+11 </wgt>
<wgt id='1431'> +2.7977452e+11 </wgt>
<wgt id='1432'> +2.6517421e+11 </wgt>
<wgt id='1433'> +2.6898918e+11 </wgt>
<wgt id='1434'> +2.6329683e+11 </wgt>
<wgt id='1435'> +2.8935273e+11 </wgt>
<wgt id='1436'> +2.7355137e+11 </wgt>
<wgt id='1437'> +2.8171066e+11 </wgt>
<wgt id='1438'> +2.7252509e+11 </wgt>
<wgt id='1439'> +2.8053464e+11 </wgt>
<wgt id='1440'> +2.8155805e+11 </wgt>
<wgt id='1441'> +2.7548298e+11 </wgt>
<wgt id='1442'> +2.7897110e+11 </wgt>
<wgt id='1443'> +2.6099810e+11 </wgt>
<wgt id='1444'> +2.8734675e+11 </wgt>
<wgt id='1445'> +2.6753044e+11 </wgt>
<wgt id='1446'> +3.0089643e+11 </wgt>
<wgt id='1447'> +2.9544357e+11 </wgt>
<wgt id='1448'> +2.8284326e+11 </wgt>
<wgt id='1449'> +2.7394740e+11 </wgt>
<wgt id='1450'> +2.6781299e+11 </wgt>
<wgt id='1451'> +2.6304290e+11 </wgt>
<wgt id='1452'> +2.8969958e+11 </wgt>
<wgt id='1453'> +2.9791250e+11 </wgt>
<wgt id='1454'> +2.6719850e+11 </wgt>
<wgt id='1455'> +2.8207604e+11 </wgt>
<wgt id='1456'> +2.7077053e+11 </wgt>
<wgt id='1457'> +2.8395465e+11 </wgt>
<wgt id='1458'> +2.8968898e+11 </wgt>
<wgt id='1459'> +3.0489274e+11 </wgt>
<wgt id='1460'> +2.9857024e+11 </wgt>
<wgt id='1461'> +3.7680621e+11 </wgt>
<wgt id='1462'> +3.3300653e+11 </wgt>
<wgt id='1463'> +3.3322897e+11 </wgt>
<wgt id='1464'> +3.3272122e+11 </wgt>
<wgt id='1465'> +3.3309585e+11 </wgt>
<wgt id='1466'> +3.3292495e+11 </wgt>
<wgt id='1467'> +3.3307152e+11 </wgt>
<wgt id='1468'> +3.3289989e+11 </wgt>
<wgt id='1469'> +3.3250431e+11 </wgt>
<wgt id='1470'> +3.3341434e+11 </wgt>
<wgt id='1471'> +3.3348522e+11 </wgt>
<wgt id='1472'> +3.3251345e+11 </wgt>
<wgt id='1473'> +3.3444874e+11 </wgt>
<wgt id='1474'> +3.3162096e+11 </wgt>
<wgt id='1475'> +3.3426270e+11 </wgt>
<wgt id='1476'> +3.3211677e+11 </wgt>
<wgt id='1477'> +3.3236829e+11 </wgt>
<wgt id='1478'> +3.3449816e+11 </wgt>
<wgt id='1479'> +3.3264076e+11 </wgt>
<wgt id='1480'> +3.3326997e+11 </wgt>
<wgt id='1481'> +3.3183391e+11 </wgt>
<wgt id='1482'> +3.3460354e+11 </wgt>
<wgt id='1483'> +3.3299466e+11 </wgt>
<wgt id='1484'> +3.3303519e+11 </wgt>
<wgt id='1485'> +3.3310629e+11 </wgt>
<wgt id='1486'> +3.3276399e+11 </wgt>
<wgt id='1487'> +3.3307976e+11 </wgt>
<wgt id='1488'> +3.3288496e+11 </wgt>
<wgt id='1489'> +3.3255894e+11 </wgt>
<wgt id='1490'> +3.3422110e+11 </wgt>
<wgt id='1491'> +3.3957544e+11 </wgt>
<wgt id='1492'> +3.2934323e+11 </wgt>
<wgt id='1493'> +3.2859535e+11 </wgt>
<wgt id='1494'> +3.4681311e+11 </wgt>
<wgt id='1495'> +3.3146005e+11 </wgt>
<wgt id='1496'> +3.3467268e+11 </wgt>
<wgt id='1497'> +3.3341471e+11 </wgt>
<wgt id='1498'> +3.3245291e+11 </wgt>
<wgt id='1499'> +3.3644270e+11 </wgt>
<wgt id='1500'> +3.3114093e+11 </wgt>
<wgt id='1501'> +3.3242215e+11 </wgt>
<wgt id='1502'> +3.3464646e+11 </wgt>
<wgt id='1503'> +3.2161973e+11 </wgt>
<wgt id='1504'> +3.4670016e+11 </wgt>
<wgt id='1505'> +3.3239759e+11 </wgt>
<wgt id='1506'> +3.3366504e+11 </wgt>
<wgt id='1507'> +3.4437595e+11 </wgt>
<wgt id='1508'> +3.1051188e+11 </wgt>
<wgt id='1509'> +3.3465482e+11 </wgt>
<wgt id='1510'> +3.2582889e+11 </wgt>
<wgt id='1511'> +3.3332784e+11 </wgt>
<wgt id='1512'> +3.3450763e+11 </wgt>
<wgt id='1513'> +3.3217584e+11 </wgt>
<wgt id='1514'> +3.3390717e+11 </wgt>
<wgt id='1515'> +3.4599610e+11 </wgt>
<wgt id='1516'> +3.2633979e+11 </wgt>
<wgt id='1517'> +3.3125516e+11 </wgt>
<wgt id='1518'> +3.3653477e+11 </wgt>
<wgt id='1519'> +3.2974461e+11 </wgt>
<wgt id='1520'> +3.3530659e+11 </wgt>
<wgt id='1521'> +3.3013085e+11 </wgt>
<wgt id='1522'> +3.3454967e+11 </wgt>
<wgt id='1523'> +3.3633342e+11 </wgt>
<wgt id='1524'> +3.3415368e+11 </wgt>
<wgt id='1525'> +3.3327432e+11 </wgt>
<wgt id='1526'> +3.3591432e+11 </wgt>
<wgt id='1527'> +3.3300653e+11 </wgt>
<wgt id='1528'> +3.2583269e+11 </wgt>
<wgt id='1529'> +3.4060208e+11 </wgt>
<wgt id='1530'> +3.0712419e+11 </wgt>
<wgt id='1531'> +3.5386834e+11 </wgt>
<wgt id='1532'> +3.6388844e+11 </wgt>
<wgt id='1533'> +3.4805496e+11 </wgt>
<wgt id='1534'> +3.4943338e+11 </wgt>
<wgt id='1535'> +3.5879255e+11 </wgt>
<wgt id='1536'> +3.4229555e+11 </wgt>
<wgt id='1537'> +3.6558975e+11 </wgt>
<wgt id='1538'> +3.4781487e+11 </wgt>
<wgt id='1539'> +3.6297959e+11 </wgt>
<wgt id='1540'> +3.6304023e+11 </wgt>
<wgt id='1541'> +3.5813259e+11 </wgt>
<wgt id='1542'> +3.5724283e+11 </wgt>
<wgt id='1543'> +3.6070285e+11 </wgt>
<wgt id='1544'> +3.4950297e+11 </wgt>
<wgt id='1545'> +3.5195651e+11 </wgt>
<wgt id='1546'> +3.5092764e+11 </wgt>
<wgt id='1547'> +3.5599089e+11 </wgt>
<wgt id='1548'> +3.5480868e+11 </wgt>
<wgt id='1549'> +3.5071916e+11 </wgt>
<wgt id='1550'> +3.5797942e+11 </wgt>
<wgt id='1551'> +3.5635621e+11 </wgt>
<wgt id='1552'> +3.5504735e+11 </wgt>
<wgt id='1553'> +3.6847131e+11 </wgt>
<wgt id='1554'> +3.5606665e+11 </wgt>
<wgt id='1555'> +3.5318228e+11 </wgt>
<wgt id='1556'> +3.5793935e+11 </wgt>
<wgt id='1557'> +3.5441459e+11 </wgt>
<wgt id='1558'> +3.5326800e+11 </wgt>
<wgt id='1559'> +3.5392860e+11 </wgt>
<wgt id='1560'> +3.5633265e+11 </wgt>
<wgt id='1561'> +3.5276407e+11 </wgt>
<wgt id='1562'> +3.4650470e+11 </wgt>
<wgt id='1563'> +3.5455032e+11 </wgt>
<wgt id='1564'> +3.5326415e+11 </wgt>
<wgt id='1565'> +3.6232293e+11 </wgt>
<wgt id='1566'> +3.5362164e+11 </wgt>
<wgt id='1567'> +3.4779502e+11 </wgt>
<wgt id='1568'> +3.5348068e+11 </wgt>
<wgt id='1569'> +3.5365026e+11 </wgt>
<wgt id='1570'> +3.6236472e+11 </wgt>
<wgt id='1571'> +3.5174418e+11 </wgt>
<wgt id='1572'> +3.4974510e+11 </wgt>
<wgt id='1573'> +3.6671806e+11 </wgt>
<wgt id='1574'> +2.2255396e+11 </wgt>
<wgt id='1575'> +2.2260634e+11 </wgt>
<wgt id='1576'> +2.2248379e+11 </wgt>
<wgt id='1577'> +2.2257023e+11 </wgt>
<wgt id='1578'> +2.2306432e+11 </wgt>
<wgt id='1579'> +2.2317848e+11 </wgt>
<wgt id='1580'> +2.2293953e+11 </wgt>
<wgt id='1581'> +2.2245249e+11 </wgt>
<wgt id='1582'> +2.2225813e+11 </wgt>
<wgt id='1583'> +2.2200777e+11 </wgt>
<wgt id='1584'> +2.2310077e+11 </wgt>
<wgt id='1585'> +2.2305730e+11 </wgt>
<wgt id='1586'> +2.2224292e+11 </wgt>
<wgt id='1587'> +2.2220822e+11 </wgt>
<wgt id='1588'> +2.2188135e+11 </wgt>
<wgt id='1589'> +2.2205909e+11 </wgt>
<wgt id='1590'> +2.2236042e+11 </wgt>
<wgt id='1591'> +2.2261635e+11 </wgt>
<wgt id='1592'> +2.2180316e+11 </wgt>
<wgt id='1593'> +2.2123047e+11 </wgt>
<wgt id='1594'> +2.2399251e+11 </wgt>
<wgt id='1595'> +2.1975403e+11 </wgt>
<wgt id='1596'> +2.2753779e+11 </wgt>
<wgt id='1597'> +2.2421146e+11 </wgt>
<wgt id='1598'> +2.2409038e+11 </wgt>
<wgt id='1599'> +2.1935363e+11 </wgt>
<wgt id='1600'> +2.2782076e+11 </wgt>
<wgt id='1601'> +2.2461617e+11 </wgt>
<wgt id='1602'> +2.2310751e+11 </wgt>
<wgt id='1603'> +2.4161701e+11 </wgt>
<wgt id='1604'> +2.2211350e+11 </wgt>
</rwgt>
</event>
<event>
 9      1 +2.8343000e+11 1.40000000e+03 7.81738600e-03 7.88881200e-02
       21 -1    0    0  504  503 +0.0000000000e+00 +0.0000000000e+00 +7.4904386520e+02 7.4904386520e+02 0.0000000000e+00 0.0000e+00 -1.0000e+00
       21 -1    0    0  503  504 -0.0000000000e+00 -0.0000000000e+00 -6.5416691565e+02 6.5416691565e+02 0.0000000000e+00 0.0000e+00 -1.0000e+00
       45  2    1    2    0    0 +0.0000000000e+00 -1.4210854715e-14 +9.4876949552e+01 1.4032107809e+03 1.3999995928e+03 0.0000e+00 0.0000e+00
       25  2    3    3    0    0 +3.2552919288e+02 -1.2388701965e+02 -5.5109921804e+02 6.6381735115e+02 1.2500351399e+02 0.0000e+00 0.0000e+00
       35  2    3    3    0    0 -3.2552919288e+02 +1.2388701965e+02 +6.4597616759e+02 7.3939342970e+02 9.0001031869e+01 0.0000e+00 0.0000e+00
        5  1    5    5  501    0 -1.6599680594e+02 +8.7831365733e+01 +4.2296570021e+02 4.6280344612e+02 4.2140000000e+00 0.0000e+00 1.0000e+00
       -5  1    5    5    0  501 -1.5953238694e+02 +3.6055653915e+01 +2.2301046738e+02 2.7658998359e+02 4.2140000000e+00 0.0000e+00 1.0000e+00
        5  1    4    4  502    0 +6.7432210962e+01 +1.5810846016e+01 -6.0191474142e+01 9.1857810133e+01 4.2140000000e+00 0.0000e+00 -1.0000e+00
       -5  1    4    4    0  502 +2.5809698192e+02 -1.3969786566e+02 -4.9090774390e+02 5.7195954102e+02 4.2140000000e+00 0.0000e+00 -1.0000e+00
<mgrwt>
<rscale>  0 0.13999996E+04</rscale>
<asrwt>0</asrwt>
<pdfrwt beam="1">  1       21 0.11523752E+00 0.13999996E+04</pdfrwt>
<pdfrwt beam="2">  1       21 0.10064106E+00 0.13999996E+04</pdfrwt>
<totfact> 0.35742979E+02</totfact>
</mgrwt>
<rwgt>
<wgt id='1001'> +2.8343000e+11 </wgt>
<wgt id='1002'> +3.1660135e+11 </wgt>
<wgt id='1003'> +3.1658992e+11 </wgt>
<wgt id='1004'> +3.5751920e+11 </wgt>
<wgt id='1005'> +2.8343000e+11 </wgt>
<wgt id='1006'> +2.8343000e+11 </wgt>
<wgt id='1007'> +3.1660135e+11 </wgt>
<wgt id='1008'> +3.1658992e+11 </wgt>
<wgt id='1009'> +3.5751920e+11 </wgt>
<wgt id='1010'> +2.8343000e+11 </wgt>
<wgt id='1011'> +2.8343000e+11 </wgt>
<wgt id='1012'> +3.1660135e+11 </wgt>
<wgt id='1013'> +3.1658992e+11 </wgt>
<wgt id='1014'> +3.5751920e+11 </wgt>
<wgt id='1015'> +2.8343000e+11 </wgt>
<wgt id='1016'> +2.5468799e+11 </wgt>
<wgt id='1017'> +2.8252918e+11 </wgt>
<wgt id='1018'> +2.8251965e+11 </wgt>
<wgt id='1019'> +3.1658992e+11 </wgt>
<wgt id='1020'> +2.5468799e+11 </wgt>
<wgt id='1021'> +2.5468799e+11 </wgt>
<wgt id='1022'> +2.8252918e+11 </wgt>
<wgt id='1023'> +2.8251965e+11 </wgt>
<wgt id='1024'> +3.1658992e+11 </wgt>
<wgt id='1025'> +2.5468799e+11 </wgt>
<wgt id='1026'> +2.5468799e+11 </wgt>
<wgt id='1027'> +2.8252918e+11 </wgt>
<wgt id='1028'> +2.8251965e+11 </wgt>
<wgt id='1029'> +3.1658992e+11 </wgt>
<wgt id='1030'> +2.5468799e+11 </wgt>
<wgt id='1031'> +3.1768169e+11 </wgt>
<wgt id='1032'> +3.5753304e+11 </wgt>
<wgt id='1033'> +3.5751920e+11 </wgt>
<wgt id='1034'> +4.0737997e+11 </wgt>
<wgt id='1035'> +3.1768169e+11 </wgt>
<wgt id='1036'> +3.1768169e+11 </wgt>
<wgt id='1037'> +3.5753304e+11 </wgt>
<wgt id='1038'> +3.5751920e+11 </wgt>
<wgt id='1039'> +4.0737997e+11 </wgt>
<wgt id='1040'> +3.1768169e+11 </wgt>
<wgt id='1041'> +3.1768169e+11 </wgt>
<wgt id='1042'> +3.5753304e+11 </wgt>
<wgt id='1043'> +3.5751920e+11 </wgt>
<wgt id='1044'> +4.0737997e+11 </wgt>
<wgt id='1045'> +3.1768169e+11 </wgt>
<wgt id='1046'> +2.8343000e+11 </wgt>
<wgt id='1047'> +2.8343000e+11 </wgt>
<wgt id='1048'> +2.8343000e+11 </wgt>
<wgt id='1049'> +2.8227085e+11 </wgt>
<wgt id='1050'> +2.8305042e+11 </wgt>
<wgt id='1051'> +2.8375182e+11 </wgt>
<wgt id='1052'> +2.8420352e+11 </wgt>
<wgt id='1053'> +2.8189157e+11 </wgt>
<wgt id='1054'> +2.8388163e+11 </wgt>
<wgt id='1055'> +2.8224903e+11 </wgt>
<wgt id='1056'> +2.8180959e+11 </wgt>
<wgt id='1057'> +2.8421166e+11 </wgt>
<wgt id='1058'> +2.8305396e+11 </wgt>
<wgt id='1059'> +2.8541162e+11 </wgt>
<wgt id='1060'> +2.8366127e+11 </wgt>
<wgt id='1061'> +2.8420706e+11 </wgt>
<wgt id='1062'> +2.8401170e+11 </wgt>
<wgt id='1063'> +2.8365702e+11 </wgt>
<wgt id='1064'> +2.8469305e+11 </wgt>
<wgt id='1065'> +2.8487300e+11 </wgt>
<wgt id='1066'> +2.8199221e+11 </wgt>
<wgt id='1067'> +2.7969918e+11 </wgt>
<wgt id='1068'> +2.8381050e+11 </wgt>
<wgt id='1069'> +2.8278613e+11 </wgt>
<wgt id='1070'> +2.8342312e+11 </wgt>
<wgt id='1071'> +2.8490556e+11 </wgt>
<wgt id='1072'> +2.8112302e+11 </wgt>
<wgt id='1073'> +2.8411504e+11 </wgt>
<wgt id='1074'> +2.8304562e+11 </wgt>
<wgt id='1075'> +2.8440915e+11 </wgt>
<wgt id='1076'> +2.8323711e+11 </wgt>
<wgt id='1077'> +2.8296442e+11 </wgt>
<wgt id='1078'> +2.8409893e+11 </wgt>
<wgt id='1079'> +2.8178274e+11 </wgt>
<wgt id='1080'> +2.8277291e+11 </wgt>
<wgt id='1081'> +2.8302399e+11 </wgt>
<wgt id='1082'> +2.8204331e+11 </wgt>
<wgt id='1083'> +2.8399623e+11 </wgt>
<wgt id='1084'> +2.8406984e+11 </wgt>
<wgt id='1085'> +2.8285636e+11 </wgt>
<wgt id='1086'> +2.8279973e+11 </wgt>
<wgt id='1087'> +2.8308071e+11 </wgt>
<wgt id='1088'> +2.8293757e+11 </wgt>
<wgt id='1089'> +2.8279716e+11 </wgt>
<wgt id='1090'> +2.8413356e+11 </wgt>
<wgt id='1091'> +2.8348671e+11 </wgt>
<wgt id='1092'> +2.8370398e+11 </wgt>
<wgt id='1093'> +2.8332752e+11 </wgt>
<wgt id='1094'> +2.8291128e+11 </wgt>
<wgt id='1095'> +2.8354580e+11 </wgt>
<wgt id='1096'> +2.8338772e+11 </wgt>
<wgt id='1097'> +2.8303770e+11 </wgt>
<wgt id='1098'> +2.8307695e+11 </wgt>
<wgt id='1099'> +2.8323418e+11 </wgt>
<wgt id='1100'> +2.8402105e+11 </wgt>
<wgt id='1101'> +2.8341268e+11 </wgt>
<wgt id='1102'> +2.8328668e+11 </wgt>
<wgt id='1103'> +2.8310184e+11 </wgt>
<wgt id='1104'> +2.8310301e+11 </wgt>
<wgt id='1105'> +2.8353665e+11 </wgt>
<wgt id='1106'> +2.8376780e+11 </wgt>
<wgt id='1107'> +2.8334250e+11 </wgt>
<wgt id='1108'> +2.8333611e+11 </wgt>
<wgt id='1109'> +2.8324180e+11 </wgt>
<wgt id='1110'> +2.8376071e+11 </wgt>
<wgt id='1111'> +2.8356072e+11 </wgt>
<wgt id='1112'> +2.8339645e+11 </wgt>
<wgt id='1113'> +2.8373760e+11 </wgt>
<wgt id='1114'> +2.8311088e+11 </wgt>
<wgt id='1115'> +2.8325886e+11 </wgt>
<wgt id='1116'> +2.8373304e+11 </wgt>
<wgt id='1117'> +2.8337449e+11 </wgt>
<wgt id='1118'> +2.8353411e+11 </wgt>
<wgt id='1119'> +2.8325452e+11 </wgt>
<wgt id='1120'> +2.8328737e+11 </wgt>
<wgt id='1121'> +2.8349973e+11 </wgt>
<wgt id='1122'> +2.8322683e+11 </wgt>
<wgt id='1123'> +2.8337266e+11 </wgt>
<wgt id='1124'> +2.8333427e+11 </wgt>
<wgt id='1125'> +2.8359065e+11 </wgt>
<wgt id='1126'> +2.8353569e+11 </wgt>
<wgt id='1127'> +2.8332196e+11 </wgt>
<wgt id='1128'> +2.8347415e+11 </wgt>
<wgt id='1129'> +2.8339229e+11 </wgt>
<wgt id='1130'> +2.8346636e+11 </wgt>
<wgt id='1131'> +2.8369444e+11 </wgt>
<wgt id='1132'> +2.8335314e+11 </wgt>
<wgt id='1133'> +2.8350625e+11 </wgt>
<wgt id='1134'> +2.8341089e+11 </wgt>
<wgt id='1135'> +2.8346786e+11 </wgt>
<wgt id='1136'> +2.8340094e+11 </wgt>
<wgt id='1137'> +2.8328900e+11 </wgt>
<wgt id='1138'> +2.8354240e+11 </wgt>
<wgt id='1139'> +2.8346788e+11 </wgt>
<wgt id='1140'> +2.8364296e+11 </wgt>
<wgt id='1141'> +2.8330628e+11 </wgt>
<wgt id='1142'> +2.8349900e+11 </wgt>
<wgt id='1143'> +2.8359283e+11 </wgt>
<wgt id='1144'> +2.8334565e+11 </wgt>
<wgt id='1145'> +2.8355281e+11 </wgt>
<wgt id='1146'> +2.8340970e+11 </wgt>
<wgt id='1147'> +2.8347333e+11 </wgt>
<wgt id='1148'> +2.8343000e+11 </wgt>
<wgt id='1149'> +2.8343000e+11 </wgt>
<wgt id='1150'> +2.9105333e+11 </wgt>
<wgt id='1151'> +2.8125166e+11 </wgt>
<wgt id='1152'> +2.8556688e+11 </wgt>
<wgt id='1153'> +2.8774056e+11 </wgt>
<wgt id='1154'> +2.8748629e+11 </wgt>
<wgt id='1155'> +2.8836474e+11 </wgt>
<wgt id='1156'> +2.7651911e+11 </wgt>
<wgt id='1157'> +2.7669865e+11 </wgt>
<wgt id='1158'> +2.7765816e+11 </wgt>
<wgt id='1159'> +2.9616582e+11 </wgt>
<wgt id='1160'> +2.8154958e+11 </wgt>
<wgt id='1161'> +2.8555310e+11 </wgt>
<wgt id='1162'> +2.7614565e+11 </wgt>
<wgt id='1163'> +2.8687389e+11 </wgt>
<wgt id='1164'> +2.6758660e+11 </wgt>
<wgt id='1165'> +2.7939098e+11 </wgt>
<wgt id='1166'> +2.8506191e+11 </wgt>
<wgt id='1167'> +2.7997207e+11 </wgt>
<wgt id='1168'> +2.7657653e+11 </wgt>
<wgt id='1169'> +2.7598316e+11 </wgt>
<wgt id='1170'> +2.7588403e+11 </wgt>
<wgt id='1171'> +2.7349411e+11 </wgt>
<wgt id='1172'> +2.7759141e+11 </wgt>
<wgt id='1173'> +2.8804518e+11 </wgt>
<wgt id='1174'> +2.7971675e+11 </wgt>
<wgt id='1175'> +2.7519010e+11 </wgt>
<wgt id='1176'> +2.8639130e+11 </wgt>
<wgt id='1177'> +2.7929755e+11 </wgt>
<wgt id='1178'> +2.8316608e+11 </wgt>
<wgt id='1179'> +2.8025618e+11 </wgt>
<wgt id='1180'> +2.8360585e+11 </wgt>
<wgt id='1181'> +2.7614760e+11 </wgt>
<wgt id='1182'> +2.8168102e+11 </wgt>
<wgt id='1183'> +2.9582588e+11 </wgt>
<wgt id='1184'> +2.7596813e+11 </wgt>
<wgt id='1185'> +2.8043242e+11 </wgt>
<wgt id='1186'> +2.7158854e+11 </wgt>
<wgt id='1187'> +2.8577582e+11 </wgt>
<wgt id='1188'> +2.7683407e+11 </wgt>
<wgt id='1189'> +2.8566806e+11 </wgt>
<wgt id='1190'> +2.8428308e+11 </wgt>
<wgt id='1191'> +2.9527756e+11 </wgt>
<wgt id='1192'> +2.9189785e+11 </wgt>
<wgt id='1193'> +2.9543890e+11 </wgt>
<wgt id='1194'> +2.8468910e+11 </wgt>
<wgt id='1195'> +2.8378663e+11 </wgt>
<wgt id='1196'> +2.9238576e+11 </wgt>
<wgt id='1197'> +2.9412563e+11 </wgt>
<wgt id='1198'> +2.7520233e+11 </wgt>
<wgt id='1199'> +2.8183360e+11 </wgt>
<wgt id='1200'> +2.8223883e+11 </wgt>
<wgt id='1201'> +2.7934279e+11 </wgt>
<wgt id='1202'> +2.8869824e+11 </wgt>
<wgt id='1203'> +2.7758291e+11 </wgt>
<wgt id='1204'> +2.8841535e+11 </wgt>
<wgt id='1205'> +2.8515667e+11 </wgt>
<wgt id='1206'> +2.7644757e+11 </wgt>
<wgt id='1207'> +2.9318765e+11 </wgt>
<wgt id='1208'> +2.7290223e+11 </wgt>
<wgt id='1209'> +2.7858955e+11 </wgt>
<wgt id='1210'> +2.8029799e+11 </wgt>
<wgt id='1211'> +2.8572797e+11 </wgt>
<wgt id='1212'> +2.8369830e+11 </wgt>
<wgt id='1213'> +2.9350458e+11 </wgt>
<wgt id='1214'> +2.7571257e+11 </wgt>
<wgt id='1215'> +2.9211291e+11 </wgt>
<wgt id='1216'> +2.8607198e+11 </wgt>
<wgt id='1217'> +2.7591715e+11 </wgt>
<wgt id='1218'> +2.8479845e+11 </wgt>
<wgt id='1219'> +2.9443990e+11 </wgt>
<wgt id='1220'> +2.7704847e+11 </wgt>
<wgt id='1221'> +2.7502002e+11 </wgt>
<wgt id='1222'> +2.8044310e+11 </wgt>
<wgt id='1223'> +2.7259952e+11 </wgt>
<wgt id='1224'> +2.8353383e+11 </wgt>
<wgt id='1225'> +2.8809209e+11 </wgt>
<wgt id='1226'> +2.9074374e+11 </wgt>
<wgt id='1227'> +2.7291990e+11 </wgt>
<wgt id='1228'> +2.8137446e+11 </wgt>
<wgt id='1229'> +3.0285630e+11 </wgt>
<wgt id='1230'> +2.9424037e+11 </wgt>
<wgt id='1231'> +2.7939098e+11 </wgt>
<wgt id='1232'> +2.8918089e+11 </wgt>
<wgt id='1233'> +2.7820171e+11 </wgt>
<wgt id='1234'> +2.7635404e+11 </wgt>
<wgt id='1235'> +3.0311170e+11 </wgt>
<wgt id='1236'> +2.7659881e+11 </wgt>
<wgt id='1237'> +2.8987760e+11 </wgt>
<wgt id='1238'> +2.8977451e+11 </wgt>
<wgt id='1239'> +2.9218218e+11 </wgt>
<wgt id='1240'> +2.8563064e+11 </wgt>
<wgt id='1241'> +2.8198218e+11 </wgt>
<wgt id='1242'> +2.8078403e+11 </wgt>
<wgt id='1243'> +2.8902259e+11 </wgt>
<wgt id='1244'> +2.8120875e+11 </wgt>
<wgt id='1245'> +2.8185973e+11 </wgt>
<wgt id='1246'> +3.0729298e+11 </wgt>
<wgt id='1247'> +2.8377198e+11 </wgt>
<wgt id='1248'> +2.7541762e+11 </wgt>
<wgt id='1249'> +2.7770077e+11 </wgt>
<wgt id='1250'> +2.9212646e+11 </wgt>
<wgt id='1251'> +2.9880782e+11 </wgt>
<wgt id='1252'> +2.8729011e+11 </wgt>
<wgt id='1253'> +2.8533134e+11 </wgt>
<wgt id='1254'> +2.8876309e+11 </wgt>
<wgt id='1255'> +2.9810047e+11 </wgt>
<wgt id='1256'> +2.9532662e+11 </wgt>
<wgt id='1257'> +2.8551926e+11 </wgt>
<wgt id='1258'> +3.0044032e+11 </wgt>
<wgt id='1259'> +2.9478821e+11 </wgt>
<wgt id='1260'> +3.2560715e+11 </wgt>
<wgt id='1261'> +3.1389117e+11 </wgt>
<wgt id='1262'> +2.8972470e+11 </wgt>
<wgt id='1263'> +2.9681491e+11 </wgt>
<wgt id='1264'> +2.9862444e+11 </wgt>
<wgt id='1265'> +2.9886493e+11 </wgt>
<wgt id='1266'> +2.9440285e+11 </wgt>
<wgt id='1267'> +3.1532353e+11 </wgt>
<wgt id='1268'> +2.9437281e+11 </wgt>
<wgt id='1269'> +2.8732380e+11 </wgt>
<wgt id='1270'> +2.9136492e+11 </wgt>
<wgt id='1271'> +2.7964101e+11 </wgt>
<wgt id='1272'> +2.9346261e+11 </wgt>
<wgt id='1273'> +2.9203385e+11 </wgt>
<wgt id='1274'> +2.8778115e+11 </wgt>
<wgt id='1275'> +2.9867449e+11 </wgt>
<wgt id='1276'> +2.9554514e+11 </wgt>
<wgt id='1277'> +2.9091593e+11 </wgt>
<wgt id='1278'> +2.8648634e+11 </wgt>
<wgt id='1279'> +2.8133007e+11 </wgt>
<wgt id='1280'> +2.9407522e+11 </wgt>
<wgt id='1281'> +2.8595741e+11 </wgt>
<wgt id='1282'> +2.9674812e+11 </wgt>
<wgt id='1283'> +2.9622363e+11 </wgt>
<wgt id='1284'> +3.1496854e+11 </wgt>
<wgt id='1285'> +3.0832095e+11 </wgt>
<wgt id='1286'> +3.2879858e+11 </wgt>
<wgt id='1287'> +3.0338207e+11 </wgt>
<wgt id='1288'> +3.2365809e+11 </wgt>
<wgt id='1289'> +3.1309770e+11 </wgt>
<wgt id='1290'> +3.1151356e+11 </wgt>
<wgt id='1291'> +2.7802667e+11 </wgt>
<wgt id='1292'> +2.9747672e+11 </wgt>
<wgt id='1293'> +3.0023791e+11 </wgt>
<wgt id='1294'> +3.1444900e+11 </wgt>
<wgt id='1295'> +2.9813327e+11 </wgt>
<wgt id='1296'> +3.1538292e+11 </wgt>
<wgt id='1297'> +2.9566786e+11 </wgt>
<wgt id='1298'> +2.8788223e+11 </wgt>
<wgt id='1299'> +2.9863785e+11 </wgt>
<wgt id='1300'> +2.8811773e+11 </wgt>
<wgt id='1301'> +2.8109344e+11 </wgt>
<wgt id='1302'> +2.7566184e+11 </wgt>
<wgt id='1303'> +2.9847027e+11 </wgt>
<wgt id='1304'> +3.0597267e+11 </wgt>
<wgt id='1305'> +2.9843419e+11 </wgt>
<wgt id='1306'> +3.0530028e+11 </wgt>
<wgt id='1307'> +3.0396084e+11 </wgt>
<wgt id='1308'> +3.2538741e+11 </wgt>
<wgt id='1309'> +2.9587768e+11 </wgt>
<wgt id='1310'> +3.0230199e+11 </wgt>
<wgt id='1311'> +3.0818859e+11 </wgt>
<wgt id='1312'> +2.9915037e+11 </wgt>
<wgt id='1313'> +2.9691880e+11 </wgt>
<wgt id='1314'> +3.0438486e+11 </wgt>
<wgt id='1315'> +2.8497358e+11 </wgt>
<wgt id='1316'> +2.9860528e+11 </wgt>
<wgt id='1317'> +3.0136282e+11 </wgt>
<wgt id='1318'> +2.8635505e+11 </wgt>
<wgt id='1319'> +3.0798699e+11 </wgt>
<wgt id='1320'> +3.0906475e+11 </wgt>
<wgt id='1321'> +2.9380918e+11 </wgt>
<wgt id='1322'> +2.9790458e+11 </wgt>
<wgt id='1323'> +2.9881106e+11 </wgt>
<wgt id='1324'> +3.0133357e+11 </wgt>
<wgt id='1325'> +3.1101463e+11 </wgt>
<wgt id='1326'> +3.0286726e+11 </wgt>
<wgt id='1327'> +2.9340204e+11 </wgt>
<wgt id='1328'> +3.0283376e+11 </wgt>
<wgt id='1329'> +2.9784809e+11 </wgt>
<wgt id='1330'> +2.9088229e+11 </wgt>
<wgt id='1331'> +3.1929457e+11 </wgt>
<wgt id='1332'> +2.8604732e+11 </wgt>
<wgt id='1333'> +3.0061599e+11 </wgt>
<wgt id='1334'> +3.1396881e+11 </wgt>
<wgt id='1335'> +2.9260570e+11 </wgt>
<wgt id='1336'> +3.0226130e+11 </wgt>
<wgt id='1337'> +3.0857316e+11 </wgt>
<wgt id='1338'> +2.8995463e+11 </wgt>
<wgt id='1339'> +3.2048003e+11 </wgt>
<wgt id='1340'> +3.0170579e+11 </wgt>
<wgt id='1341'> +3.0480144e+11 </wgt>
<wgt id='1342'> +3.1584859e+11 </wgt>
<wgt id='1343'> +3.1040320e+11 </wgt>
<wgt id='1344'> +3.0333595e+11 </wgt>
<wgt id='1345'> +2.8032097e+11 </wgt>
<wgt id='1346'> +2.9955179e+11 </wgt>
<wgt id='1347'> +2.8685603e+11 </wgt>
<wgt id='1348'> +2.8810553e+11 </wgt>
<wgt id='1349'> +2.9000433e+11 </wgt>
<wgt id='1350'> +3.0048637e+11 </wgt>
<wgt id='1351'> +2.9694449e+11 </wgt>
<wgt id='1352'> +3.0054091e+11 </wgt>
<wgt id='1353'> +2.9722385e+11 </wgt>
<wgt id='1354'> +3.0699121e+11 </wgt>
<wgt id='1355'> +2.7548232e+11 </wgt>
<wgt id='1356'> +2.7823797e+11 </wgt>
<wgt id='1357'> +2.7638471e+11 </wgt>
<wgt id='1358'> +2.7288476e+11 </wgt>
<wgt id='1359'> +2.7625528e+11 </wgt>
<wgt id='1360'> +2.6866908e+11 </wgt>
<wgt id='1361'> +2.7554084e+11 </wgt>
<wgt id='1362'> +2.7724337e+11 </wgt>
<wgt id='1363'> +2.6930413e+11 </wgt>
<wgt id='1364'> +2.8178287e+11 </wgt>
<wgt id='1365'> +2.7315130e+11 </wgt>
<wgt id='1366'> +2.7567934e+11 </wgt>
<wgt id='1367'> +2.7634209e+11 </wgt>
<wgt id='1368'> +2.7551396e+11 </wgt>
<wgt id='1369'> +2.7982775e+11 </wgt>
<wgt id='1370'> +2.7360814e+11 </wgt>
<wgt id='1371'> +2.7310863e+11 </wgt>
<wgt id='1372'> +2.8002474e+11 </wgt>
<wgt id='1373'> +2.7913891e+11 </wgt>
<wgt id='1374'> +2.6738185e+11 </wgt>
<wgt id='1375'> +2.7434220e+11 </wgt>
<wgt id='1376'> +2.7640689e+11 </wgt>
<wgt id='1377'> +2.7538222e+11 </wgt>
<wgt id='1378'> +2.7123046e+11 </wgt>
<wgt id='1379'> +2.7395036e+11 </wgt>
<wgt id='1380'> +2.7392107e+11 </wgt>
<wgt id='1381'> +2.8080487e+11 </wgt>
<wgt id='1382'> +2.7512179e+11 </wgt>
<wgt id='1383'> +2.7548452e+11 </wgt>
<wgt id='1384'> +2.7386979e+11 </wgt>
<wgt id='1385'> +2.7406318e+11 </wgt>
<wgt id='1386'> +2.7748750e+11 </wgt>
<wgt id='1387'> +2.7449647e+11 </wgt>
<wgt id='1388'> +2.7179992e+11 </wgt>
<wgt id='1389'> +2.7376442e+11 </wgt>
<wgt id='1390'> +2.7437496e+11 </wgt>
<wgt id='1391'> +2.7321998e+11 </wgt>
<wgt id='1392'> +2.7332769e+11 </wgt>
<wgt id='1393'> +2.7342809e+11 </wgt>
<wgt id='1394'> +2.7317234e+11 </wgt>
<wgt id='1395'> +2.7124106e+11 </wgt>
<wgt id='1396'> +2.7653320e+11 </wgt>
<wgt id='1397'> +2.7607749e+11 </wgt>
<wgt id='1398'> +2.7608490e+11 </wgt>
<wgt id='1399'> +2.7105992e+11 </wgt>
<wgt id='1400'> +2.7256850e+11 </wgt>
<wgt id='1401'> +2.7395139e+11 </wgt>
<wgt id='1402'> +2.7874555e+11 </wgt>
<wgt id='1403'> +2.7852539e+11 </wgt>
<wgt id='1404'> +2.7320951e+11 </wgt>
<wgt id='1405'> +2.8159517e+11 </wgt>
<wgt id='1406'> +2.7519453e+11 </wgt>
<wgt id='1407'> +2.7619905e+11 </wgt>
<wgt id='1408'> +2.7862660e+11 </wgt>
<wgt id='1409'> +2.7342509e+11 </wgt>
<wgt id='1410'> +2.7326303e+11 </wgt>
<wgt id='1411'> +2.7516388e+11 </wgt>
<wgt id='1412'> +2.7439285e+11 </wgt>
<wgt id='1413'> +2.7238469e+11 </wgt>
<wgt id='1414'> +2.7717090e+11 </wgt>
<wgt id='1415'> +2.8132526e+11 </wgt>
<wgt id='1416'> +2.7864243e+11 </wgt>
<wgt id='1417'> +2.6872054e+11 </wgt>
<wgt id='1418'> +2.7718109e+11 </wgt>
<wgt id='1419'> +2.7900753e+11 </wgt>
<wgt id='1420'> +2.7472969e+11 </wgt>
<wgt id='1421'> +2.8153618e+11 </wgt>
<wgt id='1422'> +2.6787790e+11 </wgt>
<wgt id='1423'> +2.8073555e+11 </wgt>
<wgt id='1424'> +2.7649094e+11 </wgt>
<wgt id='1425'> +2.7568123e+11 </wgt>
<wgt id='1426'> +2.7907149e+11 </wgt>
<wgt id='1427'> +2.7545238e+11 </wgt>
<wgt id='1428'> +2.7534434e+11 </wgt>
<wgt id='1429'> +2.7125188e+11 </wgt>
<wgt id='1430'> +2.7072168e+11 </wgt>
<wgt id='1431'> +2.7080237e+11 </wgt>
<wgt id='1432'> +2.7746467e+11 </wgt>
<wgt id='1433'> +2.7617793e+11 </wgt>
<wgt id='1434'> +2.8214339e+11 </wgt>
<wgt id='1435'> +2.7462487e+11 </wgt>
<wgt id='1436'> +2.7966493e+11 </wgt>
<wgt id='1437'> +2.7823587e+11 </wgt>
<wgt id='1438'> +2.7349004e+11 </wgt>
<wgt id='1439'> +2.7613426e+11 </wgt>
<wgt id='1440'> +2.8012154e+11 </wgt>
<wgt id='1441'> +2.7544790e+11 </wgt>
<wgt id='1442'> +2.8318948e+11 </wgt>
<wgt id='1443'> +2.7366774e+11 </wgt>
<wgt id='1444'> +2.7372092e+11 </wgt>
<wgt id='1445'> +2.7849311e+11 </wgt>
<wgt id='1446'> +2.7764419e+11 </wgt>
<wgt id='1447'> +2.7144981e+11 </wgt>
<wgt id='1448'> +2.7783814e+11 </wgt>
<wgt id='1449'> +2.7679049e+11 </wgt>
<wgt id='1450'> +2.7357006e+11 </wgt>
<wgt id='1451'> +2.7671929e+11 </wgt>
<wgt id='1452'> +2.7869979e+11 </wgt>
<wgt id='1453'> +2.8061634e+11 </wgt>
<wgt id='1454'> +2.6888123e+11 </wgt>
<wgt id='1455'> +2.7473001e+11 </wgt>
<wgt id='1456'> +2.7472317e+11 </wgt>
<wgt id='1457'> +2.7425624e+11 </wgt>
<wgt id='1458'> +2.7731919e+11 </wgt>
<wgt id='1459'> +3.0486370e+11 </wgt>
<wgt id='1460'> +3.0019096e+11 </wgt>
<wgt id='1461'> +3.4711426e+11 </wgt>
<wgt id='1462'> +2.9965123e+11 </wgt>
<wgt id='1463'> +2.9990176e+11 </wgt>
<wgt id='1464'> +2.9932994e+11 </wgt>
<wgt id='1465'> +2.9971254e+11 </wgt>
<wgt id='1466'> +2.9959522e+11 </wgt>
<wgt id='1467'> +2.9981526e+11 </wgt>
<wgt id='1468'> +2.9938213e+11 </wgt>
<wgt id='1469'> +2.9920023e+11 </wgt>
<wgt id='1470'> +3.0001754e+11 </wgt>
<wgt id='1471'> +3.0013046e+11 </wgt>
<wgt id='1472'> +2.9915764e+11 </wgt>
<wgt id='1473'> +3.0080111e+11 </wgt>
<wgt id='1474'> +2.9854678e+11 </wgt>
<wgt id='1475'> +3.0074894e+11 </wgt>
<wgt id='1476'> +2.9887297e+11 </wgt>
<wgt id='1477'> +2.9907712e+11 </wgt>
<wgt id='1478'> +3.0099230e+11 </wgt>
<wgt id='1479'> +2.9907110e+11 </wgt>
<wgt id='1480'> +3.0005611e+11 </wgt>
<wgt id='1481'> +2.9923205e+11 </wgt>
<wgt id='1482'> +3.0021645e+11 </wgt>
<wgt id='1483'> +2.9974981e+11 </wgt>
<wgt id='1484'> +2.9951120e+11 </wgt>
<wgt id='1485'> +2.9985212e+11 </wgt>
<wgt id='1486'> +2.9916744e+11 </wgt>
<wgt id='1487'> +2.9989935e+11 </wgt>
<wgt id='1488'> +2.9933907e+11 </wgt>
<wgt id='1489'> +2.9930026e+11 </wgt>
<wgt id='1490'> +3.0060266e+11 </wgt>
<wgt id='1491'> +3.0457107e+11 </wgt>
<wgt id='1492'> +2.9690508e+11 </wgt>
<wgt id='1493'> +2.9615600e+11 </wgt>
<wgt id='1494'> +3.1060500e+11 </wgt>
<wgt id='1495'> +2.9902067e+11 </wgt>
<wgt id='1496'> +3.0032753e+11 </wgt>
<wgt id='1497'> +2.9985015e+11 </wgt>
<wgt id='1498'> +2.9937936e+11 </wgt>
<wgt id='1499'> +3.0151547e+11 </wgt>
<wgt id='1500'> +2.9863131e+11 </wgt>
<wgt id='1501'> +3.0011801e+11 </wgt>
<wgt id='1502'> +2.9841400e+11 </wgt>
<wgt id='1503'> +2.9653586e+11 </wgt>
<wgt id='1504'> +3.0295198e+11 </wgt>
<wgt id='1505'> +3.0068592e+11 </wgt>
<wgt id='1506'> +2.9865814e+11 </wgt>
<wgt id='1507'> +3.0091346e+11 </wgt>
<wgt id='1508'> +2.9901216e+11 </wgt>
<wgt id='1509'> +3.0022056e+11 </wgt>
<wgt id='1510'> +2.9720811e+11 </wgt>
<wgt id='1511'> +3.0075585e+11 </wgt>
<wgt id='1512'> +2.9934108e+11 </wgt>
<wgt id='1513'> +2.9957317e+11 </wgt>
<wgt id='1514'> +2.9972109e+11 </wgt>
<wgt id='1515'> +3.0203215e+11 </wgt>
<wgt id='1516'> +3.0012943e+11 </wgt>
<wgt id='1517'> +2.9928187e+11 </wgt>
<wgt id='1518'> +2.9994927e+11 </wgt>
<wgt id='1519'> +2.9803339e+11 </wgt>
<wgt id='1520'> +3.0080287e+11 </wgt>
<wgt id='1521'> +2.9889581e+11 </wgt>
<wgt id='1522'> +3.0010579e+11 </wgt>
<wgt id='1523'> +3.0102305e+11 </wgt>
<wgt id='1524'> +3.0099800e+11 </wgt>
<wgt id='1525'> +3.0090252e+11 </wgt>
<wgt id='1526'> +3.0041371e+11 </wgt>
<wgt id='1527'> +2.9965123e+11 </wgt>
<wgt id='1528'> +2.9949271e+11 </wgt>
<wgt id='1529'> +2.9927730e+11 </wgt>
<wgt id='1530'> +2.9551080e+11 </wgt>
<wgt id='1531'> +2.9641177e+11 </wgt>
<wgt id='1532'> +2.9402230e+11 </wgt>
<wgt id='1533'> +2.9202794e+11 </wgt>
<wgt id='1534'> +2.9479876e+11 </wgt>
<wgt id='1535'> +2.9888466e+11 </wgt>
<wgt id='1536'> +2.9333613e+11 </wgt>
<wgt id='1537'> +2.9630131e+11 </wgt>
<wgt id='1538'> +2.9324666e+11 </wgt>
<wgt id='1539'> +3.0265290e+11 </wgt>
<wgt id='1540'> +2.9554045e+11 </wgt>
<wgt id='1541'> +2.9651246e+11 </wgt>
<wgt id='1542'> +2.9631327e+11 </wgt>
<wgt id='1543'> +2.9743793e+11 </wgt>
<wgt id='1544'> +2.9451071e+11 </wgt>
<wgt id='1545'> +2.9445610e+11 </wgt>
<wgt id='1546'> +2.9251555e+11 </wgt>
<wgt id='1547'> +2.9870442e+11 </wgt>
<wgt id='1548'> +2.9439955e+11 </wgt>
<wgt id='1549'> +2.9307863e+11 </wgt>
<wgt id='1550'> +2.9700503e+11 </wgt>
<wgt id='1551'> +2.9705902e+11 </wgt>
<wgt id='1552'> +2.9572487e+11 </wgt>
<wgt id='1553'> +2.9820097e+11 </wgt>
<wgt id='1554'> +2.9625148e+11 </wgt>
<wgt id='1555'> +2.9700941e+11 </wgt>
<wgt id='1556'> +2.9877059e+11 </wgt>
<wgt id='1557'> +2.9571328e+11 </wgt>
<wgt id='1558'> +2.9638623e+11 </wgt>
<wgt id='1559'> +2.9439550e+11 </wgt>
<wgt id='1560'> +2.9519812e+11 </wgt>
<wgt id='1561'> +2.9244991e+11 </wgt>
<wgt id='1562'> +2.9497108e+11 </wgt>
<wgt id='1563'> +2.9633147e+11 </wgt>
<wgt id='1564'> +2.9603089e+11 </wgt>
<wgt id='1565'> +2.9860698e+11 </wgt>
<wgt id='1566'> +2.9671401e+11 </wgt>
<wgt id='1567'> +2.9997912e+11 </wgt>
<wgt id='1568'> +2.9635629e+11 </wgt>
<wgt id='1569'> +2.9604965e+11 </wgt>
<wgt id='1570'> +2.9796234e+11 </wgt>
<wgt id='1571'> +2.9620703e+11 </wgt>
<wgt id='1572'> +2.9810448e+11 </wgt>
<wgt id='1573'> +2.9918824e+11 </wgt>
<wgt id='1574'> +2.6458473e+11 </wgt>
<wgt id='1575'> +2.6465689e+11 </wgt>
<wgt id='1576'> +2.6451706e+11 </wgt>
<wgt id='1577'> +2.6460298e+11 </wgt>
<wgt id='1578'> +2.6519396e+11 </wgt>
<wgt id='1579'> +2.6545197e+11 </wgt>
<wgt id='1580'> +2.6522422e+11 </wgt>
<wgt id='1581'> +2.6395547e+11 </wgt>
<wgt id='1582'> +2.6364740e+11 </wgt>
<wgt id='1583'> +2.6414653e+11 </wgt>
<wgt id='1584'> +2.6516258e+11 </wgt>
<wgt id='1585'> +2.6477233e+11 </wgt>
<wgt id='1586'> +2.6355725e+11 </wgt>
<wgt id='1587'> +2.6381505e+11 </wgt>
<wgt id='1588'> +2.6331071e+11 </wgt>
<wgt id='1589'> +2.6433598e+11 </wgt>
<wgt id='1590'> +2.6439579e+11 </wgt>
<wgt id='1591'> +2.6465220e+11 </wgt>
<wgt id='1592'> +2.6355203e+11 </wgt>
<wgt id='1593'> +2.6372334e+11 </wgt>
<wgt id='1594'> +2.6539330e+11 </wgt>
<wgt id='1595'> +2.6236003e+11 </wgt>
<wgt id='1596'> +2.6815040e+11 </wgt>
<wgt id='1597'> +2.6631487e+11 </wgt>
<wgt id='1598'> +2.6654329e+11 </wgt>
<wgt id='1599'> +2.6184976e+11 </wgt>
<wgt id='1600'> +2.6899629e+11 </wgt>
<wgt id='1601'> +2.6672689e+11 </wgt>
<wgt id='1602'> +2.6464222e+11 </wgt>
<wgt id='1603'> +2.7492588e+11 </wgt>
<wgt id='1604'> +2.6464989e+11 </wgt>
</rwgt>
</event>
<event>
 9      1 +2.8343000e+11 1.39999900e+03 7.81738600e-03 7.88881200e-02
       21 -1    0    0  504  503 +0.0000000000e+00 +0.0000000000e+00 +5.4352327411e+02 5.4352327411e+02 0.0000000000e+00 0.0000e+00 -1.0000e+00
       21 -1    0    0  503  504 -0.0000000000e+00 -0.0000000000e+00 -9.0152463723e+02 9.0152463723e+02 0.0000000000e+00 0.0000e+00 -1.0000e+00
       45  2    1    2    0    0 +0.0000000000e+00 -1.4210854715e-14 -3.5800136312e+02 1.4450479113e+03 1.3999994607e+03 0.0000e+00 0.0000e+00
       25  2    3    3    0    0 -2.5659128954e+02 +1.0842646039e+02 +4.7356923534e+02 5.6345559927e+02 1.2497601573e+02 0.0000e+00 0.0000e+00
       35  2    3    3    0    0 +2.5659128954e+02 -1.0842646039e+02 -8.3157059846e+02 8.8159231208e+02 8.9999762844e+01 0.0000e+00 0.0000e+00
        5  1    5    5  501    0 +1.5994566996e+02 -1.9937237322e+01 -4.3577840833e+02 4.6465114843e+02 4.2140000000e+00 0.0000e+00 -1.0000e+00
       -5  1    5    5    0  501 +9.6645619579e+01 -8.8489223073e+01 -3.9579219013e+02 4.1694116365e+02 4.2140000000e+00 0.0000e+00 -1.0000e+00
        5  1    4    4  502    0 -1.2052753109e+01 +4.5652950532e+01 +1.1962431117e+02 1.2867476197e+02 4.2140000000e+00 0.0000e+00 1.0000e+00
       -5  1    4    4    0  502 -2.4453853643e+02 +6.2773509862e+01 +3.5394492417e+02 4.3478083730e+02 4.2140000000e+00 0.0000e+00 1.0000e+00
<mgrwt>
<rscale>  0 0.13999995E+04</rscale>
<asrwt>0</asrwt>
<pdfrwt beam="1">  1       21 0.83618966E-01 0.13999995E+04</pdfrwt>
<pdfrwt beam="2">  1       21 0.13869610E+00 0.13999995E+04</pdfrwt>
<totfact> 0.34055022E+02</totfact>
</mgrwt>
<rwgt>
<wgt id='1001'> +2.8343000e+11 </wgt>
<wgt id='1002'> +3.2717782e+11 </wgt>
<wgt id='1003'> +3.2714953e+11 </wgt>
<wgt id='1004'> +3.7056002e+11 </wgt>
<wgt id='1005'> +2.8343000e+11 </wgt>
<wgt id='1006'> +2.8343000e+11 </wgt>
<wgt id='1007'> +3.2717782e+11 </wgt>
<wgt id='1008'> +3.2714953e+11 </wgt>
<wgt id='1009'> +3.7056002e+11 </wgt>
<wgt id='1010'> +2.8343000e+11 </wgt>
<wgt id='1011'> +2.8343000e+11 </wgt>
<wgt id='1012'> +3.2717782e+11 </wgt>
<wgt id='1013'> +3.2714953e+11 </wgt>
<wgt id='1014'> +3.7056002e+11 </wgt>
<wgt id='1015'> +2.8343000e+11 </wgt>
<wgt id='1016'> +2.5453895e+11 </wgt>
<wgt id='1017'> +2.9116730e+11 </wgt>
<wgt id='1018'> +2.9114378e+11 </wgt>
<wgt id='1019'> +3.2714953e+11 </wgt>
<wgt id='1020'> +2.5453895e+11 </wgt>
<wgt id='1021'> +2.5453895e+11 </wgt>
<wgt id='1022'> +2.9116730e+11 </wgt>
<wgt id='1023'> +2.9114378e+11 </wgt>
<wgt id='1024'> +3.2714953e+11 </wgt>
<wgt id='1025'> +2.5453895e+11 </wgt>
<wgt id='1026'> +2.5453895e+11 </wgt>
<wgt id='1027'> +2.9116730e+11 </wgt>
<wgt id='1028'> +2.9114378e+11 </wgt>
<wgt id='1029'> +3.2714953e+11 </wgt>
<wgt id='1030'> +2.5453895e+11 </wgt>
<wgt id='1031'> +3.1787900e+11 </wgt>
<wgt id='1032'> +3.7059445e+11 </wgt>
<wgt id='1033'> +3.7056002e+11 </wgt>
<wgt id='1034'> +4.2360215e+11 </wgt>
<wgt id='1035'> +3.1787900e+11 </wgt>
<wgt id='1036'> +3.1787900e+11 </wgt>
<wgt id='1037'> +3.7059445e+11 </wgt>
<wgt id='1038'> +3.7056002e+11 </wgt>
<wgt id='1039'> +4.2360215e+11 </wgt>
<wgt id='1040'> +3.1787900e+11 </wgt>
<wgt id='1041'> +3.1787900e+11 </wgt>
<wgt id='1042'> +3.7059445e+11 </wgt>
<wgt id='1043'> +3.7056002e+11 </wgt>
<wgt id='1044'> +4.2360215e+11 </wgt>
<wgt id='1045'> +3.1787900e+11 </wgt>
<wgt id='1046'> +2.8343000e+11 </wgt>
<wgt id='1047'> +2.8343000e+11 </wgt>
<wgt id='1048'> +2.8343000e+11 </wgt>
<wgt id='1049'> +2.8246662e+11 </wgt>
<wgt id='1050'> +2.8314617e+11 </wgt>
<wgt id='1051'> +2.8352000e+11 </wgt>
<wgt id='1052'> +2.8429595e+11 </wgt>
<wgt id='1053'> +2.8183327e+11 </wgt>
<wgt id='1054'> +2.8381521e+11 </wgt>
<wgt id='1055'> +2.8226026e+11 </wgt>
<wgt id='1056'> +2.8195768e+11 </wgt>
<wgt id='1057'> +2.8401765e+11 </wgt>
<wgt id='1058'> +2.8298552e+11 </wgt>
<wgt id='1059'> +2.8531564e+11 </wgt>
<wgt id='1060'> +2.8369789e+11 </wgt>
<wgt id='1061'> +2.8409352e+11 </wgt>
<wgt id='1062'> +2.8410612e+11 </wgt>
<wgt id='1063'> +2.8394446e+11 </wgt>
<wgt id='1064'> +2.8443926e+11 </wgt>
<wgt id='1065'> +2.8476978e+11 </wgt>
<wgt id='1066'> +2.8165100e+11 </wgt>
<wgt id='1067'> +2.8037766e+11 </wgt>
<wgt id='1068'> +2.8355204e+11 </wgt>
<wgt id='1069'> +2.8265127e+11 </wgt>
<wgt id='1070'> +2.8363116e+11 </wgt>
<wgt id='1071'> +2.8427903e+11 </wgt>
<wgt id='1072'> +2.8138279e+11 </wgt>
<wgt id='1073'> +2.8393922e+11 </wgt>
<wgt id='1074'> +2.8328259e+11 </wgt>
<wgt id='1075'> +2.8448048e+11 </wgt>
<wgt id='1076'> +2.8249487e+11 </wgt>
<wgt id='1077'> +2.8257306e+11 </wgt>
<wgt id='1078'> +2.8409863e+11 </wgt>
<wgt id='1079'> +2.8197642e+11 </wgt>
<wgt id='1080'> +2.8295595e+11 </wgt>
<wgt id='1081'> +2.8296671e+11 </wgt>
<wgt id='1082'> +2.8210979e+11 </wgt>
<wgt id='1083'> +2.8390107e+11 </wgt>
<wgt id='1084'> +2.8401815e+11 </wgt>
<wgt id='1085'> +2.8281509e+11 </wgt>
<wgt id='1086'> +2.8295066e+11 </wgt>
<wgt id='1087'> +2.8309701e+11 </wgt>
<wgt id='1088'> +2.8294001e+11 </wgt>
<wgt id='1089'> +2.8276542e+11 </wgt>
<wgt id='1090'> +2.8414381e+11 </wgt>
<wgt id='1091'> +2.8352364e+11 </wgt>
<wgt id='1092'> +2.8368048e+11 </wgt>
<wgt id='1093'> +2.8331033e+11 </wgt>
<wgt id='1094'> +2.8283200e+11 </wgt>
<wgt id='1095'> +2.8357468e+11 </wgt>
<wgt id='1096'> +2.8335156e+11 </wgt>
<wgt id='1097'> +2.8302184e+11 </wgt>
<wgt id='1098'> +2.8309106e+11 </wgt>
<wgt id='1099'> +2.8317426e+11 </wgt>
<wgt id='1100'> +2.8401259e+11 </wgt>
<wgt id='1101'> +2.8341050e+11 </wgt>
<wgt id='1102'> +2.8328174e+11 </wgt>
<wgt id='1103'> +2.8308344e+11 </wgt>
<wgt id='1104'> +2.8312747e+11 </wgt>
<wgt id='1105'> +2.8354975e+11 </wgt>
<wgt id='1106'> +2.8374456e+11 </wgt>
<wgt id='1107'> +2.8334715e+11 </wgt>
<wgt id='1108'> +2.8333039e+11 </wgt>
<wgt id='1109'> +2.8321816e+11 </wgt>
<wgt id='1110'> +2.8374957e+11 </wgt>
<wgt id='1111'> +2.8356242e+11 </wgt>
<wgt id='1112'> +2.8339104e+11 </wgt>
<wgt id='1113'> +2.8374249e+11 </wgt>
<wgt id='1114'> +2.8311396e+11 </wgt>
<wgt id='1115'> +2.8320781e+11 </wgt>
<wgt id='1116'> +2.8378649e+11 </wgt>
<wgt id='1117'> +2.8336821e+11 </wgt>
<wgt id='1118'> +2.8353306e+11 </wgt>
<wgt id='1119'> +2.8322797e+11 </wgt>
<wgt id='1120'> +2.8326438e+11 </wgt>
<wgt id='1121'> +2.8348439e+11 </wgt>
<wgt id='1122'> +2.8321358e+11 </wgt>
<wgt id='1123'> +2.8337820e+11 </wgt>
<wgt id='1124'> +2.8337502e+11 </wgt>
<wgt id='1125'> +2.8359144e+11 </wgt>
<wgt id='1126'> +2.8353914e+11 </wgt>
<wgt id='1127'> +2.8332460e+11 </wgt>
<wgt id='1128'> +2.8345487e+11 </wgt>
<wgt id='1129'> +2.8336909e+11 </wgt>
<wgt id='1130'> +2.8346369e+11 </wgt>
<wgt id='1131'> +2.8372900e+11 </wgt>
<wgt id='1132'> +2.8334970e+11 </wgt>
<wgt id='1133'> +2.8350880e+11 </wgt>
<wgt id='1134'> +2.8340811e+11 </wgt>
<wgt id='1135'> +2.8347311e+11 </wgt>
<wgt id='1136'> +2.8338369e+11 </wgt>
<wgt id='1137'> +2.8327316e+11 </wgt>
<wgt id='1138'> +2.8355083e+11 </wgt>
<wgt id='1139'> +2.8347916e+11 </wgt>
<wgt id='1140'> +2.8363591e+11 </wgt>
<wgt id='1141'> +2.8328344e+11 </wgt>
<wgt id='1142'> +2.8350458e+11 </wgt>
<wgt id='1143'> +2.8359897e+11 </wgt>
<wgt id='1144'> +2.8334226e+11 </wgt>
<wgt id='1145'> +2.8356126e+11 </wgt>
<wgt id='1146'> +2.8342302e+11 </wgt>
<wgt id='1147'> +2.8348035e+11 </wgt>
<wgt id='1148'> +2.8343000e+11 </wgt>
<wgt id='1149'> +2.8343000e+11 </wgt>
<wgt id='1150'> +2.9395184e+11 </wgt>
<wgt id='1151'> +2.8002013e+11 </wgt>
<wgt id='1152'> +2.8267171e+11 </wgt>
<wgt id='1153'> +2.8709783e+11 </wgt>
<wgt id='1154'> +2.8594902e+11 </wgt>
<wgt id='1155'> +2.8965366e+11 </wgt>
<wgt id='1156'> +2.7690996e+11 </wgt>
<wgt id='1157'> +2.7563646e+11 </wgt>
<wgt id='1158'> +2.7742833e+11 </wgt>
<wgt id='1159'> +2.9770108e+11 </wgt>
<wgt id='1160'> +2.8275640e+11 </wgt>
<wgt id='1161'> +2.8557759e+11 </wgt>
<wgt id='1162'> +2.7949087e+11 </wgt>
<wgt id='1163'> +2.8644868e+11 </wgt>
<wgt id='1164'> +2.6912410e+11 </wgt>
<wgt id='1165'> +2.7841850e+11 </wgt>
<wgt id='1166'> +2.8425480e+11 </wgt>
<wgt id='1167'> +2.7913215e+11 </wgt>
<wgt id='1168'> +2.7588146e+11 </wgt>
<wgt id='1169'> +2.7577302e+11 </wgt>
<wgt id='1170'> +2.7905914e+11 </wgt>
<wgt id='1171'> +2.7313668e+11 </wgt>
<wgt id='1172'> +2.7671387e+11 </wgt>
<wgt id='1173'> +2.8693082e+11 </wgt>
<wgt id='1174'> +2.7865223e+11 </wgt>
<wgt id='1175'> +2.7621417e+11 </wgt>
<wgt id='1176'> +2.8634411e+11 </wgt>
<wgt id='1177'> +2.7867304e+11 </wgt>
<wgt id='1178'> +2.8308260e+11 </wgt>
<wgt id='1179'> +2.8078425e+11 </wgt>
<wgt id='1180'> +2.8754671e+11 </wgt>
<wgt id='1181'> +2.8029378e+11 </wgt>
<wgt id='1182'> +2.8088833e+11 </wgt>
<wgt id='1183'> +2.9385167e+11 </wgt>
<wgt id='1184'> +2.8037166e+11 </wgt>
<wgt id='1185'> +2.8384773e+11 </wgt>
<wgt id='1186'> +2.7361753e+11 </wgt>
<wgt id='1187'> +2.8504157e+11 </wgt>
<wgt id='1188'> +2.8154622e+11 </wgt>
<wgt id='1189'> +2.8431886e+11 </wgt>
<wgt id='1190'> +2.8317223e+11 </wgt>
<wgt id='1191'> +2.9360324e+11 </wgt>
<wgt id='1192'> +2.9082158e+11 </wgt>
<wgt id='1193'> +2.9399593e+11 </wgt>
<wgt id='1194'> +2.8341399e+11 </wgt>
<wgt id='1195'> +2.8366586e+11 </wgt>
<wgt id='1196'> +2.9205341e+11 </wgt>
<wgt id='1197'> +2.9295793e+11 </wgt>
<wgt id='1198'> +2.7836072e+11 </wgt>
<wgt id='1199'> +2.8456185e+11 </wgt>
<wgt id='1200'> +2.8371557e+11 </wgt>
<wgt id='1201'> +2.7957021e+11 </wgt>
<wgt id='1202'> +2.8799304e+11 </wgt>
<wgt id='1203'> +2.7860281e+11 </wgt>
<wgt id='1204'> +2.8652070e+11 </wgt>
<wgt id='1205'> +2.8439237e+11 </wgt>
<wgt id='1206'> +2.7742602e+11 </wgt>
<wgt id='1207'> +2.9231724e+11 </wgt>
<wgt id='1208'> +2.7198515e+11 </wgt>
<wgt id='1209'> +2.8005830e+11 </wgt>
<wgt id='1210'> +2.8191558e+11 </wgt>
<wgt id='1211'> +2.8574585e+11 </wgt>
<wgt id='1212'> +2.8331712e+11 </wgt>
<wgt id='1213'> +2.9206729e+11 </wgt>
<wgt id='1214'> +2.7601463e+11 </wgt>
<wgt id='1215'> +2.9001053e+11 </wgt>
<wgt id='1216'> +2.8510704e+11 </wgt>
<wgt id='1217'> +2.7622835e+11 </wgt>
<wgt id='1218'> +2.8466218e+11 </wgt>
<wgt id='1219'> +2.9402982e+11 </wgt>
<wgt id='1220'> +2.7777391e+11 </wgt>
<wgt id='1221'> +2.7556500e+11 </wgt>
<wgt id='1222'> +2.7970890e+11 </wgt>
<wgt id='1223'> +2.7275116e+11 </wgt>
<wgt id='1224'> +2.8335953e+11 </wgt>
<wgt id='1225'> +2.8833576e+11 </wgt>
<wgt id='1226'> +2.8932741e+11 </wgt>
<wgt id='1227'> +2.7527844e+11 </wgt>
<wgt id='1228'> +2.8157764e+11 </wgt>
<wgt id='1229'> +3.0238875e+11 </wgt>
<wgt id='1230'> +2.9279270e+11 </wgt>
<wgt id='1231'> +2.7841850e+11 </wgt>
<wgt id='1232'> +2.8835392e+11 </wgt>
<wgt id='1233'> +2.7748426e+11 </wgt>
<wgt id='1234'> +2.7657076e+11 </wgt>
<wgt id='1235'> +3.0170441e+11 </wgt>
<wgt id='1236'> +2.7672757e+11 </wgt>
<wgt id='1237'> +2.8931606e+11 </wgt>
<wgt id='1238'> +2.8752356e+11 </wgt>
<wgt id='1239'> +2.9002849e+11 </wgt>
<wgt id='1240'> +2.8345038e+11 </wgt>
<wgt id='1241'> +2.8273713e+11 </wgt>
<wgt id='1242'> +2.8033936e+11 </wgt>
<wgt id='1243'> +2.8791942e+11 </wgt>
<wgt id='1244'> +2.8225510e+11 </wgt>
<wgt id='1245'> +2.8107496e+11 </wgt>
<wgt id='1246'> +3.0632509e+11 </wgt>
<wgt id='1247'> +2.8284700e+11 </wgt>
<wgt id='1248'> +2.7454029e+11 </wgt>
<wgt id='1249'> +2.7694253e+11 </wgt>
<wgt id='1250'> +2.9233174e+11 </wgt>
<wgt id='1251'> +2.9825471e+11 </wgt>
<wgt id='1252'> +2.8646880e+11 </wgt>
<wgt id='1253'> +2.8529577e+11 </wgt>
<wgt id='1254'> +2.8769902e+11 </wgt>
<wgt id='1255'> +2.9797046e+11 </wgt>
<wgt id='1256'> +2.9652435e+11 </wgt>
<wgt id='1257'> +2.8853136e+11 </wgt>
<wgt id='1258'> +2.9756662e+11 </wgt>
<wgt id='1259'> +2.9513230e+11 </wgt>
<wgt id='1260'> +3.2454169e+11 </wgt>
<wgt id='1261'> +3.1278664e+11 </wgt>
<wgt id='1262'> +2.8947061e+11 </wgt>
<wgt id='1263'> +2.9630398e+11 </wgt>
<wgt id='1264'> +2.9846408e+11 </wgt>
<wgt id='1265'> +2.9687394e+11 </wgt>
<wgt id='1266'> +2.9527808e+11 </wgt>
<wgt id='1267'> +3.2053750e+11 </wgt>
<wgt id='1268'> +2.9231098e+11 </wgt>
<wgt id='1269'> +2.8624934e+11 </wgt>
<wgt id='1270'> +2.9313033e+11 </wgt>
<wgt id='1271'> +2.7588869e+11 </wgt>
<wgt id='1272'> +2.9231017e+11 </wgt>
<wgt id='1273'> +2.9059156e+11 </wgt>
<wgt id='1274'> +2.8626280e+11 </wgt>
<wgt id='1275'> +2.9672626e+11 </wgt>
<wgt id='1276'> +2.9581305e+11 </wgt>
<wgt id='1277'> +2.9109523e+11 </wgt>
<wgt id='1278'> +2.8893181e+11 </wgt>
<wgt id='1279'> +2.7998729e+11 </wgt>
<wgt id='1280'> +2.9078875e+11 </wgt>
<wgt id='1281'> +2.8463133e+11 </wgt>
<wgt id='1282'> +2.9543195e+11 </wgt>
<wgt id='1283'> +2.9746905e+11 </wgt>
<wgt id='1284'> +3.1272035e+11 </wgt>
<wgt id='1285'> +3.0722599e+11 </wgt>
<wgt id='1286'> +3.2777764e+11 </wgt>
<wgt id='1287'> +3.0260991e+11 </wgt>
<wgt id='1288'> +3.2411246e+11 </wgt>
<wgt id='1289'> +3.1215292e+11 </wgt>
<wgt id='1290'> +3.1059582e+11 </wgt>
<wgt id='1291'> +2.7704020e+11 </wgt>
<wgt id='1292'> +2.9748424e+11 </wgt>
<wgt id='1293'> +2.9994839e+11 </wgt>
<wgt id='1294'> +3.1464515e+11 </wgt>
<wgt id='1295'> +3.0048389e+11 </wgt>
<wgt id='1296'> +3.1656824e+11 </wgt>
<wgt id='1297'> +2.9382933e+11 </wgt>
<wgt id='1298'> +2.8677021e+11 </wgt>
<wgt id='1299'> +2.9868043e+11 </wgt>
<wgt id='1300'> +2.8723817e+11 </wgt>
<wgt id='1301'> +2.7930070e+11 </wgt>
<wgt id='1302'> +2.7753033e+11 </wgt>
<wgt id='1303'> +2.9821231e+11 </wgt>
<wgt id='1304'> +3.0847065e+11 </wgt>
<wgt id='1305'> +2.9747978e+11 </wgt>
<wgt id='1306'> +3.0442050e+11 </wgt>
<wgt id='1307'> +2.9994959e+11 </wgt>
<wgt id='1308'> +3.2521216e+11 </wgt>
<wgt id='1309'> +2.9566578e+11 </wgt>
<wgt id='1310'> +3.0135130e+11 </wgt>
<wgt id='1311'> +3.0526007e+11 </wgt>
<wgt id='1312'> +3.0002315e+11 </wgt>
<wgt id='1313'> +2.9702898e+11 </wgt>
<wgt id='1314'> +3.0148923e+11 </wgt>
<wgt id='1315'> +2.8459517e+11 </wgt>
<wgt id='1316'> +2.9796439e+11 </wgt>
<wgt id='1317'> +3.0174838e+11 </wgt>
<wgt id='1318'> +2.8715138e+11 </wgt>
<wgt id='1319'> +3.0415431e+11 </wgt>
<wgt id='1320'> +3.0954321e+11 </wgt>
<wgt id='1321'> +2.9368026e+11 </wgt>
<wgt id='1322'> +2.9768189e+11 </wgt>
<wgt id='1323'> +2.9627269e+11 </wgt>
<wgt id='1324'> +3.0110262e+11 </wgt>
<wgt id='1325'> +3.1018313e+11 </wgt>
<wgt id='1326'> +3.0325847e+11 </wgt>
<wgt id='1327'> +2.9616372e+11 </wgt>
<wgt id='1328'> +3.0002228e+11 </wgt>
<wgt id='1329'> +2.9690122e+11 </wgt>
<wgt id='1330'> +2.8880983e+11 </wgt>
<wgt id='1331'> +3.1882823e+11 </wgt>
<wgt id='1332'> +2.8681538e+11 </wgt>
<wgt id='1333'> +3.0007156e+11 </wgt>
<wgt id='1334'> +3.1318077e+11 </wgt>
<wgt id='1335'> +2.9181625e+11 </wgt>
<wgt id='1336'> +3.0368238e+11 </wgt>
<wgt id='1337'> +3.0756343e+11 </wgt>
<wgt id='1338'> +2.8855853e+11 </wgt>
<wgt id='1339'> +3.1851165e+11 </wgt>
<wgt id='1340'> +3.0130482e+11 </wgt>
<wgt id='1341'> +3.0647464e+11 </wgt>
<wgt id='1342'> +3.1227125e+11 </wgt>
<wgt id='1343'> +3.0891519e+11 </wgt>
<wgt id='1344'> +3.0518168e+11 </wgt>
<wgt id='1345'> +2.7635439e+11 </wgt>
<wgt id='1346'> +2.9940418e+11 </wgt>
<wgt id='1347'> +2.8671269e+11 </wgt>
<wgt id='1348'> +2.8736325e+11 </wgt>
<wgt id='1349'> +2.8799180e+11 </wgt>
<wgt id='1350'> +3.0067904e+11 </wgt>
<wgt id='1351'> +2.9480678e+11 </wgt>
<wgt id='1352'> +3.0010983e+11 </wgt>
<wgt id='1353'> +2.9677251e+11 </wgt>
<wgt id='1354'> +3.0629968e+11 </wgt>
<wgt id='1355'> +2.7517543e+11 </wgt>
<wgt id='1356'> +2.7790033e+11 </wgt>
<wgt id='1357'> +2.7584563e+11 </wgt>
<wgt id='1358'> +2.7277424e+11 </wgt>
<wgt id='1359'> +2.7573727e+11 </wgt>
<wgt id='1360'> +2.6883809e+11 </wgt>
<wgt id='1361'> +2.7496848e+11 </wgt>
<wgt id='1362'> +2.7816107e+11 </wgt>
<wgt id='1363'> +2.6970691e+11 </wgt>
<wgt id='1364'> +2.8094079e+11 </wgt>
<wgt id='1365'> +2.7288727e+11 </wgt>
<wgt id='1366'> +2.7444581e+11 </wgt>
<wgt id='1367'> +2.7592029e+11 </wgt>
<wgt id='1368'> +2.7529740e+11 </wgt>
<wgt id='1369'> +2.7890188e+11 </wgt>
<wgt id='1370'> +2.7329677e+11 </wgt>
<wgt id='1371'> +2.7363437e+11 </wgt>
<wgt id='1372'> +2.7922948e+11 </wgt>
<wgt id='1373'> +2.7866268e+11 </wgt>
<wgt id='1374'> +2.6712813e+11 </wgt>
<wgt id='1375'> +2.7454841e+11 </wgt>
<wgt id='1376'> +2.7567528e+11 </wgt>
<wgt id='1377'> +2.7537027e+11 </wgt>
<wgt id='1378'> +2.7171227e+11 </wgt>
<wgt id='1379'> +2.7365074e+11 </wgt>
<wgt id='1380'> +2.7334594e+11 </wgt>
<wgt id='1381'> +2.8038715e+11 </wgt>
<wgt id='1382'> +2.7468833e+11 </wgt>
<wgt id='1383'> +2.7464397e+11 </wgt>
<wgt id='1384'> +2.7318304e+11 </wgt>
<wgt id='1385'> +2.7315581e+11 </wgt>
<wgt id='1386'> +2.7646227e+11 </wgt>
<wgt id='1387'> +2.7400375e+11 </wgt>
<wgt id='1388'> +2.7120027e+11 </wgt>
<wgt id='1389'> +2.7375130e+11 </wgt>
<wgt id='1390'> +2.7478987e+11 </wgt>
<wgt id='1391'> +2.7295669e+11 </wgt>
<wgt id='1392'> +2.7294381e+11 </wgt>
<wgt id='1393'> +2.7368025e+11 </wgt>
<wgt id='1394'> +2.7304766e+11 </wgt>
<wgt id='1395'> +2.7080159e+11 </wgt>
<wgt id='1396'> +2.7607331e+11 </wgt>
<wgt id='1397'> +2.7587383e+11 </wgt>
<wgt id='1398'> +2.7606899e+11 </wgt>
<wgt id='1399'> +2.7123423e+11 </wgt>
<wgt id='1400'> +2.7189141e+11 </wgt>
<wgt id='1401'> +2.7419701e+11 </wgt>
<wgt id='1402'> +2.7830276e+11 </wgt>
<wgt id='1403'> +2.7904146e+11 </wgt>
<wgt id='1404'> +2.7393512e+11 </wgt>
<wgt id='1405'> +2.8129728e+11 </wgt>
<wgt id='1406'> +2.7536826e+11 </wgt>
<wgt id='1407'> +2.7573080e+11 </wgt>
<wgt id='1408'> +2.7872955e+11 </wgt>
<wgt id='1409'> +2.7270959e+11 </wgt>
<wgt id='1410'> +2.7177179e+11 </wgt>
<wgt id='1411'> +2.7487342e+11 </wgt>
<wgt id='1412'> +2.7376112e+11 </wgt>
<wgt id='1413'> +2.7234393e+11 </wgt>
<wgt id='1414'> +2.7714831e+11 </wgt>
<wgt id='1415'> +2.8033001e+11 </wgt>
<wgt id='1416'> +2.7809040e+11 </wgt>
<wgt id='1417'> +2.6923344e+11 </wgt>
<wgt id='1418'> +2.7645842e+11 </wgt>
<wgt id='1419'> +2.7883273e+11 </wgt>
<wgt id='1420'> +2.7419244e+11 </wgt>
<wgt id='1421'> +2.8122594e+11 </wgt>
<wgt id='1422'> +2.6788270e+11 </wgt>
<wgt id='1423'> +2.8032271e+11 </wgt>
<wgt id='1424'> +2.7629731e+11 </wgt>
<wgt id='1425'> +2.7554726e+11 </wgt>
<wgt id='1426'> +2.7830544e+11 </wgt>
<wgt id='1427'> +2.7503389e+11 </wgt>
<wgt id='1428'> +2.7490652e+11 </wgt>
<wgt id='1429'> +2.7199451e+11 </wgt>
<wgt id='1430'> +2.7067183e+11 </wgt>
<wgt id='1431'> +2.7028388e+11 </wgt>
<wgt id='1432'> +2.7648044e+11 </wgt>
<wgt id='1433'> +2.7521319e+11 </wgt>
<wgt id='1434'> +2.8216582e+11 </wgt>
<wgt id='1435'> +2.7422809e+11 </wgt>
<wgt id='1436'> +2.7912731e+11 </wgt>
<wgt id='1437'> +2.7721579e+11 </wgt>
<wgt id='1438'> +2.7354506e+11 </wgt>
<wgt id='1439'> +2.7663966e+11 </wgt>
<wgt id='1440'> +2.7928749e+11 </wgt>
<wgt id='1441'> +2.7445885e+11 </wgt>
<wgt id='1442'> +2.8213345e+11 </wgt>
<wgt id='1443'> +2.7322085e+11 </wgt>
<wgt id='1444'> +2.7438918e+11 </wgt>
<wgt id='1445'> +2.7765782e+11 </wgt>
<wgt id='1446'> +2.7816998e+11 </wgt>
<wgt id='1447'> +2.7157573e+11 </wgt>
<wgt id='1448'> +2.7755270e+11 </wgt>
<wgt id='1449'> +2.7695006e+11 </wgt>
<wgt id='1450'> +2.7364161e+11 </wgt>
<wgt id='1451'> +2.7652394e+11 </wgt>
<wgt id='1452'> +2.7803871e+11 </wgt>
<wgt id='1453'> +2.7920515e+11 </wgt>
<wgt id='1454'> +2.6827751e+11 </wgt>
<wgt id='1455'> +2.7432617e+11 </wgt>
<wgt id='1456'> +2.7436356e+11 </wgt>
<wgt id='1457'> +2.7399983e+11 </wgt>
<wgt id='1458'> +2.7764742e+11 </wgt>
<wgt id='1459'> +3.0534206e+11 </wgt>
<wgt id='1460'> +3.0062783e+11 </wgt>
<wgt id='1461'> +3.4934602e+11 </wgt>
<wgt id='1462'> +2.9871419e+11 </wgt>
<wgt id='1463'> +2.9895875e+11 </wgt>
<wgt id='1464'> +2.9840053e+11 </wgt>
<wgt id='1465'> +2.9877629e+11 </wgt>
<wgt id='1466'> +2.9865744e+11 </wgt>
<wgt id='1467'> +2.9886925e+11 </wgt>
<wgt id='1468'> +2.9845976e+11 </wgt>
<wgt id='1469'> +2.9826825e+11 </wgt>
<wgt id='1470'> +2.9907637e+11 </wgt>
<wgt id='1471'> +2.9918642e+11 </wgt>
<wgt id='1472'> +2.9822780e+11 </wgt>
<wgt id='1473'> +2.9986765e+11 </wgt>
<wgt id='1474'> +2.9760631e+11 </wgt>
<wgt id='1475'> +2.9981347e+11 </wgt>
<wgt id='1476'> +2.9793483e+11 </wgt>
<wgt id='1477'> +2.9814670e+11 </wgt>
<wgt id='1478'> +3.0003981e+11 </wgt>
<wgt id='1479'> +2.9817496e+11 </wgt>
<wgt id='1480'> +2.9909123e+11 </wgt>
<wgt id='1481'> +2.9828170e+11 </wgt>
<wgt id='1482'> +2.9929759e+11 </wgt>
<wgt id='1483'> +2.9880811e+11 </wgt>
<wgt id='1484'> +2.9858104e+11 </wgt>
<wgt id='1485'> +2.9891716e+11 </wgt>
<wgt id='1486'> +2.9822542e+11 </wgt>
<wgt id='1487'> +2.9896873e+11 </wgt>
<wgt id='1488'> +2.9839460e+11 </wgt>
<wgt id='1489'> +2.9836103e+11 </wgt>
<wgt id='1490'> +2.9967161e+11 </wgt>
<wgt id='1491'> +3.0362585e+11 </wgt>
<wgt id='1492'> +2.9597343e+11 </wgt>
<wgt id='1493'> +2.9520780e+11 </wgt>
<wgt id='1494'> +3.0970480e+11 </wgt>
<wgt id='1495'> +2.9806070e+11 </wgt>
<wgt id='1496'> +2.9941520e+11 </wgt>
<wgt id='1497'> +2.9891248e+11 </wgt>
<wgt id='1498'> +2.9844314e+11 </wgt>
<wgt id='1499'> +3.0059725e+11 </wgt>
<wgt id='1500'> +2.9768423e+11 </wgt>
<wgt id='1501'> +2.9916912e+11 </wgt>
<wgt id='1502'> +2.9750862e+11 </wgt>
<wgt id='1503'> +2.9549710e+11 </wgt>
<wgt id='1504'> +3.0214790e+11 </wgt>
<wgt id='1505'> +2.9970306e+11 </wgt>
<wgt id='1506'> +2.9776109e+11 </wgt>
<wgt id='1507'> +3.0020948e+11 </wgt>
<wgt id='1508'> +2.9754096e+11 </wgt>
<wgt id='1509'> +2.9930629e+11 </wgt>
<wgt id='1510'> +2.9617192e+11 </wgt>
<wgt id='1511'> +2.9983598e+11 </wgt>
<wgt id='1512'> +2.9838980e+11 </wgt>
<wgt id='1513'> +2.9863007e+11 </wgt>
<wgt id='1514'> +2.9879646e+11 </wgt>
<wgt id='1515'> +3.0123602e+11 </wgt>
<wgt id='1516'> +2.9909247e+11 </wgt>
<wgt id='1517'> +2.9832991e+11 </wgt>
<wgt id='1518'> +2.9905378e+11 </wgt>
<wgt id='1519'> +2.9705596e+11 </wgt>
<wgt id='1520'> +2.9989376e+11 </wgt>
<wgt id='1521'> +2.9790669e+11 </wgt>
<wgt id='1522'> +2.9919466e+11 </wgt>
<wgt id='1523'> +3.0004911e+11 </wgt>
<wgt id='1524'> +3.0009946e+11 </wgt>
<wgt id='1525'> +2.9989700e+11 </wgt>
<wgt id='1526'> +2.9955911e+11 </wgt>
<wgt id='1527'> +2.9871419e+11 </wgt>
<wgt id='1528'> +2.9845420e+11 </wgt>
<wgt id='1529'> +2.9846942e+11 </wgt>
<wgt id='1530'> +2.9474325e+11 </wgt>
<wgt id='1531'> +2.9631662e+11 </wgt>
<wgt id='1532'> +2.9393344e+11 </wgt>
<wgt id='1533'> +2.9174108e+11 </wgt>
<wgt id='1534'> +2.9471160e+11 </wgt>
<wgt id='1535'> +2.9871195e+11 </wgt>
<wgt id='1536'> +2.9365547e+11 </wgt>
<wgt id='1537'> +2.9622922e+11 </wgt>
<wgt id='1538'> +2.9317695e+11 </wgt>
<wgt id='1539'> +3.0232514e+11 </wgt>
<wgt id='1540'> +2.9560817e+11 </wgt>
<wgt id='1541'> +2.9675931e+11 </wgt>
<wgt id='1542'> +2.9627843e+11 </wgt>
<wgt id='1543'> +2.9749366e+11 </wgt>
<wgt id='1544'> +2.9440197e+11 </wgt>
<wgt id='1545'> +2.9433721e+11 </wgt>
<wgt id='1546'> +2.9238384e+11 </wgt>
<wgt id='1547'> +2.9862237e+11 </wgt>
<wgt id='1548'> +2.9437982e+11 </wgt>
<wgt id='1549'> +2.9287631e+11 </wgt>
<wgt id='1550'> +2.9711819e+11 </wgt>
<wgt id='1551'> +2.9691718e+11 </wgt>
<wgt id='1552'> +2.9573669e+11 </wgt>
<wgt id='1553'> +2.9837609e+11 </wgt>
<wgt id='1554'> +2.9618393e+11 </wgt>
<wgt id='1555'> +2.9696004e+11 </wgt>
<wgt id='1556'> +2.9870934e+11 </wgt>
<wgt id='1557'> +2.9525205e+11 </wgt>
<wgt id='1558'> +2.9635855e+11 </wgt>
<wgt id='1559'> +2.9420550e+11 </wgt>
<wgt id='1560'> +2.9506870e+11 </wgt>
<wgt id='1561'> +2.9269605e+11 </wgt>
<wgt id='1562'> +2.9494567e+11 </wgt>
<wgt id='1563'> +2.9631295e+11 </wgt>
<wgt id='1564'> +2.9588726e+11 </wgt>
<wgt id='1565'> +2.9841553e+11 </wgt>
<wgt id='1566'> +2.9638139e+11 </wgt>
<wgt id='1567'> +2.9977377e+11 </wgt>
<wgt id='1568'> +2.9625081e+11 </wgt>
<wgt id='1569'> +2.9595246e+11 </wgt>
<wgt id='1570'> +3.0170293e+11 </wgt>
<wgt id='1571'> +2.9613349e+11 </wgt>
<wgt id='1572'> +2.9824014e+11 </wgt>
<wgt id='1573'> +2.9945293e+11 </wgt>
<wgt id='1574'> +2.6703944e+11 </wgt>
<wgt id='1575'> +2.6711196e+11 </wgt>
<wgt id='1576'> +2.6697147e+11 </wgt>
<wgt id='1577'> +2.6705783e+11 </wgt>
<wgt id='1578'> +2.6765269e+11 </wgt>
<wgt id='1579'> +2.6789845e+11 </wgt>
<wgt id='1580'> +2.6767136e+11 </wgt>
<wgt id='1581'> +2.6642280e+11 </wgt>
<wgt id='1582'> +2.6611862e+11 </wgt>
<wgt id='1583'> +2.6658634e+11 </wgt>
<wgt id='1584'> +2.6762286e+11 </wgt>
<wgt id='1585'> +2.6723395e+11 </wgt>
<wgt id='1586'> +2.6603302e+11 </wgt>
<wgt id='1587'> +2.6628178e+11 </wgt>
<wgt id='1588'> +2.6578210e+11 </wgt>
<wgt id='1589'> +2.6677825e+11 </wgt>
<wgt id='1590'> +2.6685741e+11 </wgt>
<wgt id='1591'> +2.6710864e+11 </wgt>
<wgt id='1592'> +2.6600842e+11 </wgt>
<wgt id='1593'> +2.6614939e+11 </wgt>
<wgt id='1594'> +2.6787711e+11 </wgt>
<wgt id='1595'> +2.6477088e+11 </wgt>
<wgt id='1596'> +2.7069032e+11 </wgt>
<wgt id='1597'> +2.6878655e+11 </wgt>
<wgt id='1598'> +2.6900051e+11 </wgt>
<wgt id='1599'> +2.6426633e+11 </wgt>
<wgt id='1600'> +2.7150883e+11 </wgt>
<wgt id='1601'> +2.6917950e+11 </wgt>
<wgt id='1602'> +2.6709416e+11 </wgt>
<wgt id='1603'> +2.7788924e+11 </wgt>
<wgt id='1604'> +2.6701124e+11 </wgt>
</rwgt>
</event>
<event>
 9      1 +2.8343000e+11 1.40000300e+03 7.81738600e-03 7.88880900e-02
       21 -1    0    0  504  503 +0.0000000000e+00 +0.0000000000e+00 +7.1508012902e+02 7.1508012902e+02 0.0000000000e+00 0.0000e+00 -1.0000e+00
       21 -1    0    0  503  504 -0.0000000000e+00 -0.0000000000e+00 -6.8524123177e+02 6.8524123177e+02 0.0000000000e+00 0.0000e+00 -1.0000e+00
       45  2    1    2    0    0 +2.8421709430e-14 -5.6843418861e-14 +2.9838897254e+01 1.4003213608e+03 1.4000034120e+03 0.0000e+00 0.0000e+00
       25  2    3    3    0    0 +2.4992126080e+02 -4.7918217513e+02 -4.1648075898e+02 6.9365530877e+02 1.2500108486e+02 0.0000e+00 0.0000e+00
       35  2    3    3    0    0 -2.4992126080e+02 +4.7918217513e+02 +4.4631965623e+02 7.0666605203e+02 8.9997110970e+01 0.0000e+00 0.0000e+00
        5  1    5    5  501    0 -2.4081834814e+02 +3.9366890075e+02 +3.8419789984e+02 6.0049518254e+02 4.2140000000e+00 0.0000e+00 1.0000e+00
       -5  1    5    5    0  501 -9.1029126690e+00 +8.5513274380e+01 +6.2121756396e+01 1.0617086949e+02 4.2140000000e+00 0.0000e+00 -1.0000e+00
        5  1    4    4  502    0 +8.5962365158e+01 -2.1758855161e+02 -1.0980258925e+02 2.5847373642e+02 4.2140000000e+00 0.0000e+00 -1.0000e+00
       -5  1    4    4    0  502 +1.6395889565e+02 -2.6159362352e+02 -3.0667816973e+02 4.3518157235e+02 4.2140000000e+00 0.0000e+00 -1.0000e+00
<mgrwt>
<rscale>  0 0.14000034E+04</rscale>
<asrwt>0</asrwt>
<pdfrwt beam="1">  1       21 0.11001233E+00 0.14000034E+04</pdfrwt>
<pdfrwt beam="2">  1       21 0.10542173E+00 0.14000034E+04</pdfrwt>
<totfact> 0.35873797E+02</totfact>
</mgrwt>
<rwgt>
<wgt id='1001'> +2.8343000e+11 </wgt>
<wgt id='1002'> +2.9503180e+11 </wgt>
<wgt id='1003'> +2.9502896e+11 </wgt>
<wgt id='1004'> +3.3159323e+11 </wgt>
<wgt id='1005'> +2.8343000e+11 </wgt>
<wgt id='1006'> +2.8343000e+11 </wgt>
<wgt id='1007'> +2.9503180e+11 </wgt>
<wgt id='1008'> +2.9502896e+11 </wgt>
<wgt id='1009'> +3.3159323e+11 </wgt>
<wgt id='1010'> +2.8343000e+11 </wgt>
<wgt id='1011'> +2.8343000e+11 </wgt>
<wgt id='1012'> +2.9503180e+11 </wgt>
<wgt id='1013'> +2.9502896e+11 </wgt>
<wgt id='1014'> +3.3159323e+11 </wgt>
<wgt id='1015'> +2.8343000e+11 </wgt>
<wgt id='1016'> +2.5470381e+11 </wgt>
<wgt id='1017'> +2.6450979e+11 </wgt>
<wgt id='1018'> +2.6450740e+11 </wgt>
<wgt id='1019'> +2.9502896e+11 </wgt>
<wgt id='1020'> +2.5470381e+11 </wgt>
<wgt id='1021'> +2.5470381e+11 </wgt>
<wgt id='1022'> +2.6450979e+11 </wgt>
<wgt id='1023'> +2.6450740e+11 </wgt>
<wgt id='1024'> +2.9502896e+11 </wgt>
<wgt id='1025'> +2.5470381e+11 </wgt>
<wgt id='1026'> +2.5470381e+11 </wgt>
<wgt id='1027'> +2.6450979e+11 </wgt>
<wgt id='1028'> +2.6450740e+11 </wgt>
<wgt id='1029'> +2.9502896e+11 </wgt>
<wgt id='1030'> +2.5470381e+11 </wgt>
<wgt id='1031'> +3.1766063e+11 </wgt>
<wgt id='1032'> +3.3159664e+11 </wgt>
<wgt id='1033'> +3.3159323e+11 </wgt>
<wgt id='1034'> +3.7572250e+11 </wgt>
<wgt id='1035'> +3.1766063e+11 </wgt>
<wgt id='1036'> +3.1766063e+11 </wgt>
<wgt id='1037'> +3.3159664e+11 </wgt>
<wgt id='1038'> +3.3159323e+11 </wgt>
<wgt id='1039'> +3.7572250e+11 </wgt>
<wgt id='1040'> +3.1766063e+11 </wgt>
<wgt id='1041'> +3.1766063e+11 </wgt>
<wgt id='1042'> +3.3159664e+11 </wgt>
<wgt id='1043'> +3.3159323e+11 </wgt>
<wgt id='1044'> +3.7572250e+11 </wgt>
<wgt id='1045'> +3.1766063e+11 </wgt>
<wgt id='1046'> +2.8343000e+11 </wgt>
<wgt id='1047'> +2.8343000e+11 </wgt>
<wgt id='1048'> +2.8343000e+11 </wgt>
<wgt id='1049'> +2.8225665e+11 </wgt>
<wgt id='1050'> +2.8304329e+11 </wgt>
<wgt id='1051'> +2.8377038e+11 </wgt>
<wgt id='1052'> +2.8419567e+11 </wgt>
<wgt id='1053'> +2.8189610e+11 </wgt>
<wgt id='1054'> +2.8388610e+11 </wgt>
<wgt id='1055'> +2.8224834e+11 </wgt>
<wgt id='1056'> +2.8179691e+11 </wgt>
<wgt id='1057'> +2.8422764e+11 </wgt>
<wgt id='1058'> +2.8305952e+11 </wgt>
<wgt id='1059'> +2.8541417e+11 </wgt>
<wgt id='1060'> +2.8366121e+11 </wgt>
<wgt id='1061'> +2.8421607e+11 </wgt>
<wgt id='1062'> +2.8400437e+11 </wgt>
<wgt id='1063'> +2.8363640e+11 </wgt>
<wgt id='1064'> +2.8470933e+11 </wgt>
<wgt id='1065'> +2.8487989e+11 </wgt>
<wgt id='1066'> +2.8201913e+11 </wgt>
<wgt id='1067'> +2.7964813e+11 </wgt>
<wgt id='1068'> +2.8382856e+11 </wgt>
<wgt id='1069'> +2.8279941e+11 </wgt>
<wgt id='1070'> +2.8340432e+11 </wgt>
<wgt id='1071'> +2.8495201e+11 </wgt>
<wgt id='1072'> +2.8110792e+11 </wgt>
<wgt id='1073'> +2.8412609e+11 </wgt>
<wgt id='1074'> +2.8302148e+11 </wgt>
<wgt id='1075'> +2.8440249e+11 </wgt>
<wgt id='1076'> +2.8329724e+11 </wgt>
<wgt id='1077'> +2.8299542e+11 </wgt>
<wgt id='1078'> +2.8409680e+11 </wgt>
<wgt id='1079'> +2.8176766e+11 </wgt>
<wgt id='1080'> +2.8276128e+11 </wgt>
<wgt id='1081'> +2.8302966e+11 </wgt>
<wgt id='1082'> +2.8203805e+11 </wgt>
<wgt id='1083'> +2.8400167e+11 </wgt>
<wgt id='1084'> +2.8407095e+11 </wgt>
<wgt id='1085'> +2.8285920e+11 </wgt>
<wgt id='1086'> +2.8278689e+11 </wgt>
<wgt id='1087'> +2.8307980e+11 </wgt>
<wgt id='1088'> +2.8293511e+11 </wgt>
<wgt id='1089'> +2.8279742e+11 </wgt>
<wgt id='1090'> +2.8413211e+11 </wgt>
<wgt id='1091'> +2.8348039e+11 </wgt>
<wgt id='1092'> +2.8371048e+11 </wgt>
<wgt id='1093'> +2.8332953e+11 </wgt>
<wgt id='1094'> +2.8292037e+11 </wgt>
<wgt id='1095'> +2.8354455e+11 </wgt>
<wgt id='1096'> +2.8339355e+11 </wgt>
<wgt id='1097'> +2.8303948e+11 </wgt>
<wgt id='1098'> +2.8307664e+11 </wgt>
<wgt id='1099'> +2.8323955e+11 </wgt>
<wgt id='1100'> +2.8402239e+11 </wgt>
<wgt id='1101'> +2.8341439e+11 </wgt>
<wgt id='1102'> +2.8328960e+11 </wgt>
<wgt id='1103'> +2.8310083e+11 </wgt>
<wgt id='1104'> +2.8310270e+11 </wgt>
<wgt id='1105'> +2.8353393e+11 </wgt>
<wgt id='1106'> +2.8377151e+11 </wgt>
<wgt id='1107'> +2.8334624e+11 </wgt>
<wgt id='1108'> +2.8333499e+11 </wgt>
<wgt id='1109'> +2.8324472e+11 </wgt>
<wgt id='1110'> +2.8376151e+11 </wgt>
<wgt id='1111'> +2.8356171e+11 </wgt>
<wgt id='1112'> +2.8339572e+11 </wgt>
<wgt id='1113'> +2.8373606e+11 </wgt>
<wgt id='1114'> +2.8311008e+11 </wgt>
<wgt id='1115'> +2.8326327e+11 </wgt>
<wgt id='1116'> +2.8372886e+11 </wgt>
<wgt id='1117'> +2.8337567e+11 </wgt>
<wgt id='1118'> +2.8353527e+11 </wgt>
<wgt id='1119'> +2.8325654e+11 </wgt>
<wgt id='1120'> +2.8328999e+11 </wgt>
<wgt id='1121'> +2.8350404e+11 </wgt>
<wgt id='1122'> +2.8322663e+11 </wgt>
<wgt id='1123'> +2.8337138e+11 </wgt>
<wgt id='1124'> +2.8332882e+11 </wgt>
<wgt id='1125'> +2.8359100e+11 </wgt>
<wgt id='1126'> +2.8353513e+11 </wgt>
<wgt id='1127'> +2.8332182e+11 </wgt>
<wgt id='1128'> +2.8347617e+11 </wgt>
<wgt id='1129'> +2.8339574e+11 </wgt>
<wgt id='1130'> +2.8346836e+11 </wgt>
<wgt id='1131'> +2.8369095e+11 </wgt>
<wgt id='1132'> +2.8335371e+11 </wgt>
<wgt id='1133'> +2.8350596e+11 </wgt>
<wgt id='1134'> +2.8341201e+11 </wgt>
<wgt id='1135'> +2.8346717e+11 </wgt>
<wgt id='1136'> +2.8340317e+11 </wgt>
<wgt id='1137'> +2.8329139e+11 </wgt>
<wgt id='1138'> +2.8354139e+11 </wgt>
<wgt id='1139'> +2.8346805e+11 </wgt>
<wgt id='1140'> +2.8364362e+11 </wgt>
<wgt id='1141'> +2.8330849e+11 </wgt>
<wgt id='1142'> +2.8349842e+11 </wgt>
<wgt id='1143'> +2.8359106e+11 </wgt>
<wgt id='1144'> +2.8334620e+11 </wgt>
<wgt id='1145'> +2.8355218e+11 </wgt>
<wgt id='1146'> +2.8340869e+11 </wgt>
<wgt id='1147'> +2.8347180e+11 </wgt>
<wgt id='1148'> +2.8343000e+11 </wgt>
<wgt id='1149'> +2.8343000e+11 </wgt>
<wgt id='1150'> +2.9081768e+11 </wgt>
<wgt id='1151'> +2.8134163e+11 </wgt>
<wgt id='1152'> +2.8578971e+11 </wgt>
<wgt id='1153'> +2.8778874e+11 </wgt>
<wgt id='1154'> +2.8759314e+11 </wgt>
<wgt id='1155'> +2.8828283e+11 </wgt>
<wgt id='1156'> +2.7649254e+11 </wgt>
<wgt id='1157'> +2.7678421e+11 </wgt>
<wgt id='1158'> +2.7767970e+11 </wgt>
<wgt id='1159'> +2.9605253e+11 </wgt>
<wgt id='1160'> +2.8147146e+11 </wgt>
<wgt id='1161'> +2.8556738e+11 </wgt>
<wgt id='1162'> +2.7588022e+11 </wgt>
<wgt id='1163'> +2.8690919e+11 </wgt>
<wgt id='1164'> +2.6752924e+11 </wgt>
<wgt id='1165'> +2.7946688e+11 </wgt>
<wgt id='1166'> +2.8512611e+11 </wgt>
<wgt id='1167'> +2.8003973e+11 </wgt>
<wgt id='1168'> +2.7662755e+11 </wgt>
<wgt id='1169'> +2.7600362e+11 </wgt>
<wgt id='1170'> +2.7565725e+11 </wgt>
<wgt id='1171'> +2.7352454e+11 </wgt>
<wgt id='1172'> +2.7765557e+11 </wgt>
<wgt id='1173'> +2.8812781e+11 </wgt>
<wgt id='1174'> +2.7979703e+11 </wgt>
<wgt id='1175'> +2.7511956e+11 </wgt>
<wgt id='1176'> +2.8639370e+11 </wgt>
<wgt id='1177'> +2.7935152e+11 </wgt>
<wgt id='1178'> +2.8318119e+11 </wgt>
<wgt id='1179'> +2.8023093e+11 </wgt>
<wgt id='1180'> +2.8331595e+11 </wgt>
<wgt id='1181'> +2.7580277e+11 </wgt>
<wgt id='1182'> +2.8174314e+11 </wgt>
<wgt id='1183'> +2.9596572e+11 </wgt>
<wgt id='1184'> +2.7561282e+11 </wgt>
<wgt id='1185'> +2.8008963e+11 </wgt>
<wgt id='1186'> +2.7144678e+11 </wgt>
<wgt id='1187'> +2.8583172e+11 </wgt>
<wgt id='1188'> +2.7637503e+11 </wgt>
<wgt id='1189'> +2.8576745e+11 </wgt>
<wgt id='1190'> +2.8436403e+11 </wgt>
<wgt id='1191'> +2.9539809e+11 </wgt>
<wgt id='1192'> +2.9197318e+11 </wgt>
<wgt id='1193'> +2.9553860e+11 </wgt>
<wgt id='1194'> +2.8478003e+11 </wgt>
<wgt id='1195'> +2.8380444e+11 </wgt>
<wgt id='1196'> +2.9240928e+11 </wgt>
<wgt id='1197'> +2.9420740e+11 </wgt>
<wgt id='1198'> +2.7498306e+11 </wgt>
<wgt id='1199'> +2.8163933e+11 </wgt>
<wgt id='1200'> +2.8213990e+11 </wgt>
<wgt id='1201'> +2.7934048e+11 </wgt>
<wgt id='1202'> +2.8874575e+11 </wgt>
<wgt id='1203'> +2.7752106e+11 </wgt>
<wgt id='1204'> +2.8854881e+11 </wgt>
<wgt id='1205'> +2.8521696e+11 </wgt>
<wgt id='1206'> +2.7638374e+11 </wgt>
<wgt id='1207'> +2.9324719e+11 </wgt>
<wgt id='1208'> +2.7297691e+11 </wgt>
<wgt id='1209'> +2.7849130e+11 </wgt>
<wgt id='1210'> +2.8020037e+11 </wgt>
<wgt id='1211'> +2.8572023e+11 </wgt>
<wgt id='1212'> +2.8372792e+11 </wgt>
<wgt id='1213'> +2.9360302e+11 </wgt>
<wgt id='1214'> +2.7570175e+11 </wgt>
<wgt id='1215'> +2.9225396e+11 </wgt>
<wgt id='1216'> +2.8612397e+11 </wgt>
<wgt id='1217'> +2.7590653e+11 </wgt>
<wgt id='1218'> +2.8481375e+11 </wgt>
<wgt id='1219'> +2.9446832e+11 </wgt>
<wgt id='1220'> +2.7700420e+11 </wgt>
<wgt id='1221'> +2.7498523e+11 </wgt>
<wgt id='1222'> +2.8050219e+11 </wgt>
<wgt id='1223'> +2.7259579e+11 </wgt>
<wgt id='1224'> +2.8354792e+11 </wgt>
<wgt id='1225'> +2.8807096e+11 </wgt>
<wgt id='1226'> +2.9084291e+11 </wgt>
<wgt id='1227'> +2.7275849e+11 </wgt>
<wgt id='1228'> +2.8136364e+11 </wgt>
<wgt id='1229'> +3.0288161e+11 </wgt>
<wgt id='1230'> +2.9433930e+11 </wgt>
<wgt id='1231'> +2.7946688e+11 </wgt>
<wgt id='1232'> +2.8924331e+11 </wgt>
<wgt id='1233'> +2.7825871e+11 </wgt>
<wgt id='1234'> +2.7634701e+11 </wgt>
<wgt id='1235'> +3.0321120e+11 </wgt>
<wgt id='1236'> +2.7659868e+11 </wgt>
<wgt id='1237'> +2.8992616e+11 </wgt>
<wgt id='1238'> +2.8993340e+11 </wgt>
<wgt id='1239'> +2.9234128e+11 </wgt>
<wgt id='1240'> +2.8578394e+11 </wgt>
<wgt id='1241'> +2.8194027e+11 </wgt>
<wgt id='1242'> +2.8082179e+11 </wgt>
<wgt id='1243'> +2.8910104e+11 </wgt>
<wgt id='1244'> +2.8116230e+11 </wgt>
<wgt id='1245'> +2.8191328e+11 </wgt>
<wgt id='1246'> +3.0735415e+11 </wgt>
<wgt id='1247'> +2.8384463e+11 </wgt>
<wgt id='1248'> +2.7548665e+11 </wgt>
<wgt id='1249'> +2.7776014e+11 </wgt>
<wgt id='1250'> +2.9211674e+11 </wgt>
<wgt id='1251'> +2.9863741e+11 </wgt>
<wgt id='1252'> +2.8714160e+11 </wgt>
<wgt id='1253'> +2.8513081e+11 </wgt>
<wgt id='1254'> +2.8864072e+11 </wgt>
<wgt id='1255'> +2.9789817e+11 </wgt>
<wgt id='1256'> +2.9500436e+11 </wgt>
<wgt id='1257'> +2.8505042e+11 </wgt>
<wgt id='1258'> +3.0045396e+11 </wgt>
<wgt id='1259'> +2.9456774e+11 </wgt>
<wgt id='1260'> +3.2547831e+11 </wgt>
<wgt id='1261'> +3.1375896e+11 </wgt>
<wgt id='1262'> +2.8953277e+11 </wgt>
<wgt id='1263'> +2.9663769e+11 </wgt>
<wgt id='1264'> +2.9841628e+11 </wgt>
<wgt id='1265'> +2.9879859e+11 </wgt>
<wgt id='1266'> +2.9416013e+11 </wgt>
<wgt id='1267'> +3.1470372e+11 </wgt>
<wgt id='1268'> +2.9431099e+11 </wgt>
<wgt id='1269'> +2.8719259e+11 </wgt>
<wgt id='1270'> +2.9100944e+11 </wgt>
<wgt id='1271'> +2.7971873e+11 </wgt>
<wgt id='1272'> +2.9333791e+11 </wgt>
<wgt id='1273'> +2.9193540e+11 </wgt>
<wgt id='1274'> +2.8769616e+11 </wgt>
<wgt id='1275'> +2.9860435e+11 </wgt>
<wgt id='1276'> +2.9531516e+11 </wgt>
<wgt id='1277'> +2.9069562e+11 </wgt>
<wgt id='1278'> +2.8605274e+11 </wgt>
<wgt id='1279'> +2.8122626e+11 </wgt>
<wgt id='1280'> +2.9413086e+11 </wgt>
<wgt id='1281'> +2.8585228e+11 </wgt>
<wgt id='1282'> +2.9662738e+11 </wgt>
<wgt id='1283'> +2.9593565e+11 </wgt>
<wgt id='1284'> +3.1491473e+11 </wgt>
<wgt id='1285'> +3.0818451e+11 </wgt>
<wgt id='1286'> +3.2864904e+11 </wgt>
<wgt id='1287'> +3.0324452e+11 </wgt>
<wgt id='1288'> +3.2341718e+11 </wgt>
<wgt id='1289'> +3.1295543e+11 </wgt>
<wgt id='1290'> +3.1136685e+11 </wgt>
<wgt id='1291'> +2.7789259e+11 </wgt>
<wgt id='1292'> +2.9726443e+11 </wgt>
<wgt id='1293'> +3.0003681e+11 </wgt>
<wgt id='1294'> +3.1422513e+11 </wgt>
<wgt id='1295'> +2.9769628e+11 </wgt>
<wgt id='1296'> +3.1508230e+11 </wgt>
<wgt id='1297'> +2.9558859e+11 </wgt>
<wgt id='1298'> +2.8776378e+11 </wgt>
<wgt id='1299'> +2.9842320e+11 </wgt>
<wgt id='1300'> +2.8795213e+11 </wgt>
<wgt id='1301'> +2.8104187e+11 </wgt>
<wgt id='1302'> +2.7524005e+11 </wgt>
<wgt id='1303'> +2.9828104e+11 </wgt>
<wgt id='1304'> +3.0558245e+11 </wgt>
<wgt id='1305'> +2.9829084e+11 </wgt>
<wgt id='1306'> +3.0514367e+11 </wgt>
<wgt id='1307'> +3.0404119e+11 </wgt>
<wgt id='1308'> +3.2517848e+11 </wgt>
<wgt id='1309'> +2.9567161e+11 </wgt>
<wgt id='1310'> +3.0215460e+11 </wgt>
<wgt id='1311'> +3.0819270e+11 </wgt>
<wgt id='1312'> +2.9890549e+11 </wgt>
<wgt id='1313'> +2.9670325e+11 </wgt>
<wgt id='1314'> +3.0438176e+11 </wgt>
<wgt id='1315'> +2.8479008e+11 </wgt>
<wgt id='1316'> +2.9843869e+11 </wgt>
<wgt id='1317'> +3.0113886e+11 </wgt>
<wgt id='1318'> +2.8603622e+11 </wgt>
<wgt id='1319'> +3.0805567e+11 </wgt>
<wgt id='1320'> +3.0882203e+11 </wgt>
<wgt id='1321'> +2.9364664e+11 </wgt>
<wgt id='1322'> +2.9775730e+11 </wgt>
<wgt id='1323'> +2.9877752e+11 </wgt>
<wgt id='1324'> +3.0115496e+11 </wgt>
<wgt id='1325'> +3.1086320e+11 </wgt>
<wgt id='1326'> +3.0261360e+11 </wgt>
<wgt id='1327'> +2.9301953e+11 </wgt>
<wgt id='1328'> +3.0285013e+11 </wgt>
<wgt id='1329'> +2.9770352e+11 </wgt>
<wgt id='1330'> +2.9082890e+11 </wgt>
<wgt id='1331'> +3.1911307e+11 </wgt>
<wgt id='1332'> +2.8580149e+11 </wgt>
<wgt id='1333'> +3.0044006e+11 </wgt>
<wgt id='1334'> +3.1382074e+11 </wgt>
<wgt id='1335'> +2.9244513e+11 </wgt>
<wgt id='1336'> +3.0194706e+11 </wgt>
<wgt id='1337'> +3.0843617e+11 </wgt>
<wgt id='1338'> +2.8984637e+11 </wgt>
<wgt id='1339'> +3.2040267e+11 </wgt>
<wgt id='1340'> +3.0153455e+11 </wgt>
<wgt id='1341'> +3.0448716e+11 </wgt>
<wgt id='1342'> +3.1590113e+11 </wgt>
<wgt id='1343'> +3.1029449e+11 </wgt>
<wgt id='1344'> +3.0297108e+11 </wgt>
<wgt id='1345'> +2.8040816e+11 </wgt>
<wgt id='1346'> +2.9936445e+11 </wgt>
<wgt id='1347'> +2.8666624e+11 </wgt>
<wgt id='1348'> +2.8793186e+11 </wgt>
<wgt id='1349'> +2.8996017e+11 </wgt>
<wgt id='1350'> +3.0026297e+11 </wgt>
<wgt id='1351'> +2.9689341e+11 </wgt>
<wgt id='1352'> +3.0035985e+11 </wgt>
<wgt id='1353'> +2.9704770e+11 </wgt>
<wgt id='1354'> +3.0683537e+11 </wgt>
<wgt id='1355'> +2.7541798e+11 </wgt>
<wgt id='1356'> +2.7817508e+11 </wgt>
<wgt id='1357'> +2.7633871e+11 </wgt>
<wgt id='1358'> +2.7280769e+11 </wgt>
<wgt id='1359'> +2.7620390e+11 </wgt>
<wgt id='1360'> +2.6857204e+11 </wgt>
<wgt id='1361'> +2.7549525e+11 </wgt>
<wgt id='1362'> +2.7708950e+11 </wgt>
<wgt id='1363'> +2.6919420e+11 </wgt>
<wgt id='1364'> +2.8175844e+11 </wgt>
<wgt id='1365'> +2.7308489e+11 </wgt>
<wgt id='1366'> +2.7568352e+11 </wgt>
<wgt id='1367'> +2.7628436e+11 </wgt>
<wgt id='1368'> +2.7544319e+11 </wgt>
<wgt id='1369'> +2.7981581e+11 </wgt>
<wgt id='1370'> +2.7354038e+11 </wgt>
<wgt id='1371'> +2.7298118e+11 </wgt>
<wgt id='1372'> +2.7999110e+11 </wgt>
<wgt id='1373'> +2.7908622e+11 </wgt>
<wgt id='1374'> +2.6731882e+11 </wgt>
<wgt id='1375'> +2.7424094e+11 </wgt>
<wgt id='1376'> +2.7637328e+11 </wgt>
<wgt id='1377'> +2.7529377e+11 </wgt>
<wgt id='1378'> +2.7111185e+11 </wgt>
<wgt id='1379'> +2.7388617e+11 </wgt>
<wgt id='1380'> +2.7387769e+11 </wgt>
<wgt id='1381'> +2.8074533e+11 </wgt>
<wgt id='1382'> +2.7506611e+11 </wgt>
<wgt id='1383'> +2.7545838e+11 </wgt>
<wgt id='1384'> +2.7383134e+11 </wgt>
<wgt id='1385'> +2.7404099e+11 </wgt>
<wgt id='1386'> +2.7747257e+11 </wgt>
<wgt id='1387'> +2.7444528e+11 </wgt>
<wgt id='1388'> +2.7175911e+11 </wgt>
<wgt id='1389'> +2.7367651e+11 </wgt>
<wgt id='1390'> +2.7425898e+11 </wgt>
<wgt id='1391'> +2.7315537e+11 </wgt>
<wgt id='1392'> +2.7326630e+11 </wgt>
<wgt id='1393'> +2.7332524e+11 </wgt>
<wgt id='1394'> +2.7309646e+11 </wgt>
<wgt id='1395'> +2.7118757e+11 </wgt>
<wgt id='1396'> +2.7647955e+11 </wgt>
<wgt id='1397'> +2.7600426e+11 </wgt>
<wgt id='1398'> +2.7600316e+11 </wgt>
<wgt id='1399'> +2.7096283e+11 </wgt>
<wgt id='1400'> +2.7253084e+11 </wgt>
<wgt id='1401'> +2.7384713e+11 </wgt>
<wgt id='1402'> +2.7868950e+11 </wgt>
<wgt id='1403'> +2.7840388e+11 </wgt>
<wgt id='1404'> +2.7307308e+11 </wgt>
<wgt id='1405'> +2.8153007e+11 </wgt>
<wgt id='1406'> +2.7509808e+11 </wgt>
<wgt id='1407'> +2.7614706e+11 </wgt>
<wgt id='1408'> +2.7853571e+11 </wgt>
<wgt id='1409'> +2.7338932e+11 </wgt>
<wgt id='1410'> +2.7328619e+11 </wgt>
<wgt id='1411'> +2.7509834e+11 </wgt>
<wgt id='1412'> +2.7435582e+11 </wgt>
<wgt id='1413'> +2.7231384e+11 </wgt>
<wgt id='1414'> +2.7708331e+11 </wgt>
<wgt id='1415'> +2.8130284e+11 </wgt>
<wgt id='1416'> +2.7859304e+11 </wgt>
<wgt id='1417'> +2.6860067e+11 </wgt>
<wgt id='1418'> +2.7714486e+11 </wgt>
<wgt id='1419'> +2.7893039e+11 </wgt>
<wgt id='1420'> +2.7467632e+11 </wgt>
<wgt id='1421'> +2.8147107e+11 </wgt>
<wgt id='1422'> +2.6779165e+11 </wgt>
<wgt id='1423'> +2.8067555e+11 </wgt>
<wgt id='1424'> +2.7641581e+11 </wgt>
<wgt id='1425'> +2.7560284e+11 </wgt>
<wgt id='1426'> +2.7904088e+11 </wgt>
<wgt id='1427'> +2.7539434e+11 </wgt>
<wgt id='1428'> +2.7528812e+11 </wgt>
<wgt id='1429'> +2.7111251e+11 </wgt>
<wgt id='1430'> +2.7064058e+11 </wgt>
<wgt id='1431'> +2.7075873e+11 </wgt>
<wgt id='1432'> +2.7744505e+11 </wgt>
<wgt id='1433'> +2.7615719e+11 </wgt>
<wgt id='1434'> +2.8205056e+11 </wgt>
<wgt id='1435'> +2.7456822e+11 </wgt>
<wgt id='1436'> +2.7961911e+11 </wgt>
<wgt id='1437'> +2.7822119e+11 </wgt>
<wgt id='1438'> +2.7339977e+11 </wgt>
<wgt id='1439'> +2.7601432e+11 </wgt>
<wgt id='1440'> +2.8009152e+11 </wgt>
<wgt id='1441'> +2.7543206e+11 </wgt>
<wgt id='1442'> +2.8317477e+11 </wgt>
<wgt id='1443'> +2.7361254e+11 </wgt>
<wgt id='1444'> +2.7359138e+11 </wgt>
<wgt id='1445'> +2.7846458e+11 </wgt>
<wgt id='1446'> +2.7752143e+11 </wgt>
<wgt id='1447'> +2.7135759e+11 </wgt>
<wgt id='1448'> +2.7777143e+11 </wgt>
<wgt id='1449'> +2.7669058e+11 </wgt>
<wgt id='1450'> +2.7347801e+11 </wgt>
<wgt id='1451'> +2.7664379e+11 </wgt>
<wgt id='1452'> +2.7866175e+11 </wgt>
<wgt id='1453'> +2.8063324e+11 </wgt>
<wgt id='1454'> +2.6883947e+11 </wgt>
<wgt id='1455'> +2.7467204e+11 </wgt>
<wgt id='1456'> +2.7466208e+11 </wgt>
<wgt id='1457'> +2.7418954e+11 </wgt>
<wgt id='1458'> +2.7721026e+11 </wgt>
<wgt id='1459'> +3.0508181e+11 </wgt>
<wgt id='1460'> +3.0040785e+11 </wgt>
<wgt id='1461'> +3.4719013e+11 </wgt>
<wgt id='1462'> +2.9973201e+11 </wgt>
<wgt id='1463'> +2.9998293e+11 </wgt>
<wgt id='1464'> +2.9941023e+11 </wgt>
<wgt id='1465'> +2.9979327e+11 </wgt>
<wgt id='1466'> +2.9967605e+11 </wgt>
<wgt id='1467'> +2.9989664e+11 </wgt>
<wgt id='1468'> +2.9946193e+11 </wgt>
<wgt id='1469'> +2.9928075e+11 </wgt>
<wgt id='1470'> +3.0009854e+11 </wgt>
<wgt id='1471'> +3.0021174e+11 </wgt>
<wgt id='1472'> +2.9923792e+11 </wgt>
<wgt id='1473'> +3.0088140e+11 </wgt>
<wgt id='1474'> +2.9862804e+11 </wgt>
<wgt id='1475'> +3.0082955e+11 </wgt>
<wgt id='1476'> +2.9895387e+11 </wgt>
<wgt id='1477'> +2.9915744e+11 </wgt>
<wgt id='1478'> +3.0107416e+11 </wgt>
<wgt id='1479'> +2.9914871e+11 </wgt>
<wgt id='1480'> +3.0013906e+11 </wgt>
<wgt id='1481'> +2.9931348e+11 </wgt>
<wgt id='1482'> +3.0029636e+11 </wgt>
<wgt id='1483'> +2.9983093e+11 </wgt>
<wgt id='1484'> +2.9959147e+11 </wgt>
<wgt id='1485'> +2.9993259e+11 </wgt>
<wgt id='1486'> +2.9924899e+11 </wgt>
<wgt id='1487'> +2.9997930e+11 </wgt>
<wgt id='1488'> +2.9942082e+11 </wgt>
<wgt id='1489'> +2.9938126e+11 </wgt>
<wgt id='1490'> +3.0068288e+11 </wgt>
<wgt id='1491'> +3.0465171e+11 </wgt>
<wgt id='1492'> +2.9698588e+11 </wgt>
<wgt id='1493'> +2.9623819e+11 </wgt>
<wgt id='1494'> +3.1068120e+11 </wgt>
<wgt id='1495'> +2.9910318e+11 </wgt>
<wgt id='1496'> +3.0040646e+11 </wgt>
<wgt id='1497'> +2.9993093e+11 </wgt>
<wgt id='1498'> +2.9946016e+11 </wgt>
<wgt id='1499'> +3.0159460e+11 </wgt>
<wgt id='1500'> +2.9871298e+11 </wgt>
<wgt id='1501'> +3.0019970e+11 </wgt>
<wgt id='1502'> +2.9849241e+11 </wgt>
<wgt id='1503'> +2.9662445e+11 </wgt>
<wgt id='1504'> +3.0302283e+11 </wgt>
<wgt id='1505'> +3.0076968e+11 </wgt>
<wgt id='1506'> +2.9873642e+11 </wgt>
<wgt id='1507'> +3.0097783e+11 </wgt>
<wgt id='1508'> +2.9912985e+11 </wgt>
<wgt id='1509'> +3.0029969e+11 </wgt>
<wgt id='1510'> +2.9729610e+11 </wgt>
<wgt id='1511'> +3.0083524e+11 </wgt>
<wgt id='1512'> +2.9942280e+11 </wgt>
<wgt id='1513'> +2.9965429e+11 </wgt>
<wgt id='1514'> +2.9980110e+11 </wgt>
<wgt id='1515'> +3.0210269e+11 </wgt>
<wgt id='1516'> +3.0021690e+11 </wgt>
<wgt id='1517'> +2.9936380e+11 </wgt>
<wgt id='1518'> +3.0002725e+11 </wgt>
<wgt id='1519'> +2.9811710e+11 </wgt>
<wgt id='1520'> +3.0088162e+11 </wgt>
<wgt id='1521'> +2.9898034e+11 </wgt>
<wgt id='1522'> +3.0018470e+11 </wgt>
<wgt id='1523'> +3.0110638e+11 </wgt>
<wgt id='1524'> +3.0107567e+11 </wgt>
<wgt id='1525'> +3.0098790e+11 </wgt>
<wgt id='1526'> +3.0048864e+11 </wgt>
<wgt id='1527'> +2.9973201e+11 </wgt>
<wgt id='1528'> +2.9958087e+11 </wgt>
<wgt id='1529'> +2.9934900e+11 </wgt>
<wgt id='1530'> +2.9557840e+11 </wgt>
<wgt id='1531'> +2.9658438e+11 </wgt>
<wgt id='1532'> +2.9419481e+11 </wgt>
<wgt id='1533'> +2.9221425e+11 </wgt>
<wgt id='1534'> +2.9497177e+11 </wgt>
<wgt id='1535'> +2.9905670e+11 </wgt>
<wgt id='1536'> +2.9348861e+11 </wgt>
<wgt id='1537'> +2.9647219e+11 </wgt>
<wgt id='1538'> +2.9341989e+11 </wgt>
<wgt id='1539'> +3.0283813e+11 </wgt>
<wgt id='1540'> +2.9570241e+11 </wgt>
<wgt id='1541'> +2.9665557e+11 </wgt>
<wgt id='1542'> +2.9648221e+11 </wgt>
<wgt id='1543'> +2.9760189e+11 </wgt>
<wgt id='1544'> +2.9468414e+11 </wgt>
<wgt id='1545'> +2.9463064e+11 </wgt>
<wgt id='1546'> +2.9269076e+11 </wgt>
<wgt id='1547'> +2.9887514e+11 </wgt>
<wgt id='1548'> +2.9456750e+11 </wgt>
<wgt id='1549'> +2.9325813e+11 </wgt>
<wgt id='1550'> +2.9716474e+11 </wgt>
<wgt id='1551'> +2.9723455e+11 </wgt>
<wgt id='1552'> +2.9589043e+11 </wgt>
<wgt id='1553'> +2.9835650e+11 </wgt>
<wgt id='1554'> +2.9642265e+11 </wgt>
<wgt id='1555'> +2.9717930e+11 </wgt>
<wgt id='1556'> +2.9894086e+11 </wgt>
<wgt id='1557'> +2.9591071e+11 </wgt>
<wgt id='1558'> +2.9655452e+11 </wgt>
<wgt id='1559'> +2.9457489e+11 </wgt>
<wgt id='1560'> +2.9537352e+11 </wgt>
<wgt id='1561'> +2.9260260e+11 </wgt>
<wgt id='1562'> +2.9514015e+11 </wgt>
<wgt id='1563'> +2.9649944e+11 </wgt>
<wgt id='1564'> +2.9620667e+11 </wgt>
<wgt id='1565'> +2.9878443e+11 </wgt>
<wgt id='1566'> +2.9689739e+11 </wgt>
<wgt id='1567'> +3.0015634e+11 </wgt>
<wgt id='1568'> +2.9652958e+11 </wgt>
<wgt id='1569'> +2.9622268e+11 </wgt>
<wgt id='1570'> +2.9795846e+11 </wgt>
<wgt id='1571'> +2.9638204e+11 </wgt>
<wgt id='1572'> +2.9826471e+11 </wgt>
<wgt id='1573'> +2.9934061e+11 </wgt>
<wgt id='1574'> +2.6353463e+11 </wgt>
<wgt id='1575'> +2.6360653e+11 </wgt>
<wgt id='1576'> +2.6346707e+11 </wgt>
<wgt id='1577'> +2.6355282e+11 </wgt>
<wgt id='1578'> +2.6414193e+11 </wgt>
<wgt id='1579'> +2.6440180e+11 </wgt>
<wgt id='1580'> +2.6417384e+11 </wgt>
<wgt id='1581'> +2.6290620e+11 </wgt>
<wgt id='1582'> +2.6259843e+11 </wgt>
<wgt id='1583'> +2.6309975e+11 </wgt>
<wgt id='1584'> +2.6411051e+11 </wgt>
<wgt id='1585'> +2.6372169e+11 </wgt>
<wgt id='1586'> +2.6250783e+11 </wgt>
<wgt id='1587'> +2.6276515e+11 </wgt>
<wgt id='1588'> +2.6226146e+11 </wgt>
<wgt id='1589'> +2.6328736e+11 </wgt>
<wgt id='1590'> +2.6334531e+11 </wgt>
<wgt id='1591'> +2.6360183e+11 </wgt>
<wgt id='1592'> +2.6250348e+11 </wgt>
<wgt id='1593'> +2.6267572e+11 </wgt>
<wgt id='1594'> +2.6434109e+11 </wgt>
<wgt id='1595'> +2.6131516e+11 </wgt>
<wgt id='1596'> +2.6709245e+11 </wgt>
<wgt id='1597'> +2.6526152e+11 </wgt>
<wgt id='1598'> +2.6549088e+11 </wgt>
<wgt id='1599'> +2.6080473e+11 </wgt>
<wgt id='1600'> +2.6793993e+11 </wgt>
<wgt id='1601'> +2.6567575e+11 </wgt>
<wgt id='1602'> +2.6359192e+11 </wgt>
<wgt id='1603'> +2.7382793e+11 </wgt>
<wgt id='1604'> +2.6361791e+11 </wgt>
</rwgt>
</event>
<event>
 9      1 +2.8343000e+11 1.40000100e+03 7.81738600e-03 7.88881100e-02
       21 -1    0    0  504  503 +0.0000000000e+00 +0.0000000000e+00 +2.7132301897e+02 2.7132301897e+02 0.0000000000e+00 0.0000e+00 -1.0000e+00
       21 -1    0    0  503  504 -0.0000000000e+00 -0.0000000000e+00 -1.8059685810e+03 1.8059685810e+03 0.0000000000e+00 0.0000e+00 -1.0000e+00
       45  2    1    2    0    0 -5.6843418861e-14 +0.0000000000e+00 -1.5346455620e+03 2.0772916000e+03 1.4000012108e+03 0.0000e+00 0.0000e+00
       25  2    3    3    0    0 -3.0278092903e+02 +1.4190534653e+02 +1.2779320449e+02 3.7917024479e+02 1.2500221226e+02 0.0000e+00 0.0000e+00
       35  2    3    3    0    0 +3.0278092903e+02 -1.4190534653e+02 -1.6624387665e+03 1.6981213552e+03 9.0000367372e+01 0.0000e+00 0.0000e+00
        5  1    5    5  501    0 +2.6232982690e+02 -8.4229631458e+01 -1.3022512335e+03 1.3310851219e+03 4.2140000000e+00 0.0000e+00 1.0000e+00
       -5  1    5    5    0  501 +4.0451102129e+01 -5.7675715067e+01 -3.6018753300e+02 3.6703623322e+02 4.2140000000e+00 0.0000e+00 1.0000e+00
        5  1    4    4  502    0 -6.3444728837e+01 +5.2491510514e+01 +8.7949528677e+01 1.2055484098e+02 4.2140000000e+00 0.0000e+00 1.0000e+00
       -5  1    4    4    0  502 -2.3933620019e+02 +8.9413836011e+01 +3.9843675811e+01 2.5861540381e+02 4.2140000000e+00 0.0000e+00 1.0000e+00
<mgrwt>
<rscale>  0 0.14000012E+04</rscale>
<asrwt>0</asrwt>
<pdfrwt beam="1">  1       21 0.41742004E-01 0.14000012E+04</pdfrwt>
<pdfrwt beam="2">  1       21 0.27784131E+00 0.14000012E+04</pdfrwt>
<totfact> 0.15033155E+02</totfact>
</mgrwt>
<rwgt>
<wgt id='1001'> +2.8343000e+11 </wgt>
<wgt id='1002'> +3.2210558e+11 </wgt>
<wgt id='1003'> +3.2208733e+11 </wgt>
<wgt id='1004'> +3.6759817e+11 </wgt>
<wgt id='1005'> +2.8343000e+11 </wgt>
<wgt id='1006'> +2.8343000e+11 </wgt>
<wgt id='1007'> +3.2210558e+11 </wgt>
<wgt id='1008'> +3.2208733e+11 </wgt>
<wgt id='1009'> +3.6759817e+11 </wgt>
<wgt id='1010'> +2.8343000e+11 </wgt>
<wgt id='1011'> +2.8343000e+11 </wgt>
<wgt id='1012'> +3.2210558e+11 </wgt>
<wgt id='1013'> +3.2208733e+11 </wgt>
<wgt id='1014'> +3.6759817e+11 </wgt>
<wgt id='1015'> +2.8343000e+11 </wgt>
<wgt id='1016'> +2.5237951e+11 </wgt>
<wgt id='1017'> +2.8456899e+11 </wgt>
<wgt id='1018'> +2.8455390e+11 </wgt>
<wgt id='1019'> +3.2208733e+11 </wgt>
<wgt id='1020'> +2.5237951e+11 </wgt>
<wgt id='1021'> +2.5237951e+11 </wgt>
<wgt id='1022'> +2.8456899e+11 </wgt>
<wgt id='1023'> +2.8455390e+11 </wgt>
<wgt id='1024'> +3.2208733e+11 </wgt>
<wgt id='1025'> +2.5237951e+11 </wgt>
<wgt id='1026'> +2.5237951e+11 </wgt>
<wgt id='1027'> +2.8456899e+11 </wgt>
<wgt id='1028'> +2.8455390e+11 </wgt>
<wgt id='1029'> +3.2208733e+11 </wgt>
<wgt id='1030'> +2.5237951e+11 </wgt>
<wgt id='1031'> +3.2072850e+11 </wgt>
<wgt id='1032'> +3.6762047e+11 </wgt>
<wgt id='1033'> +3.6759817e+11 </wgt>
<wgt id='1034'> +4.2349840e+11 </wgt>
<wgt id='1035'> +3.2072850e+11 </wgt>
<wgt id='1036'> +3.2072850e+11 </wgt>
<wgt id='1037'> +3.6762047e+11 </wgt>
<wgt id='1038'> +3.6759817e+11 </wgt>
<wgt id='1039'> +4.2349840e+11 </wgt>
<wgt id='1040'> +3.2072850e+11 </wgt>
<wgt id='1041'> +3.2072850e+11 </wgt>
<wgt id='1042'> +3.6762047e+11 </wgt>
<wgt id='1043'> +3.6759817e+11 </wgt>
<wgt id='1044'> +4.2349840e+11 </wgt>
<wgt id='1045'> +3.2072850e+11 </wgt>
<wgt id='1046'> +2.8343000e+11 </wgt>
<wgt id='1047'> +2.8343000e+11 </wgt>
<wgt id='1048'> +2.8343000e+11 </wgt>
<wgt id='1049'> +2.8326238e+11 </wgt>
<wgt id='1050'> +2.8278064e+11 </wgt>
<wgt id='1051'> +2.8353809e+11 </wgt>
<wgt id='1052'> +2.8365519e+11 </wgt>
<wgt id='1053'> +2.8161230e+11 </wgt>
<wgt id='1054'> +2.8483873e+11 </wgt>
<wgt id='1055'> +2.8198268e+11 </wgt>
<wgt id='1056'> +2.8160401e+11 </wgt>
<wgt id='1057'> +2.8224368e+11 </wgt>
<wgt id='1058'> +2.8289162e+11 </wgt>
<wgt id='1059'> +2.8576785e+11 </wgt>
<wgt id='1060'> +2.8319113e+11 </wgt>
<wgt id='1061'> +2.8449614e+11 </wgt>
<wgt id='1062'> +2.8466136e+11 </wgt>
<wgt id='1063'> +2.8470522e+11 </wgt>
<wgt id='1064'> +2.8464638e+11 </wgt>
<wgt id='1065'> +2.8536363e+11 </wgt>
<wgt id='1066'> +2.8218620e+11 </wgt>
<wgt id='1067'> +2.8200709e+11 </wgt>
<wgt id='1068'> +2.8411968e+11 </wgt>
<wgt id='1069'> +2.8244401e+11 </wgt>
<wgt id='1070'> +2.8344530e+11 </wgt>
<wgt id='1071'> +2.8411846e+11 </wgt>
<wgt id='1072'> +2.8303830e+11 </wgt>
<wgt id='1073'> +2.8257244e+11 </wgt>
<wgt id='1074'> +2.8268848e+11 </wgt>
<wgt id='1075'> +2.8191554e+11 </wgt>
<wgt id='1076'> +2.8329271e+11 </wgt>
<wgt id='1077'> +2.8101171e+11 </wgt>
<wgt id='1078'> +2.8270350e+11 </wgt>
<wgt id='1079'> +2.8262584e+11 </wgt>
<wgt id='1080'> +2.8264600e+11 </wgt>
<wgt id='1081'> +2.8306510e+11 </wgt>
<wgt id='1082'> +2.8350024e+11 </wgt>
<wgt id='1083'> +2.8421632e+11 </wgt>
<wgt id='1084'> +2.8387349e+11 </wgt>
<wgt id='1085'> +2.8200238e+11 </wgt>
<wgt id='1086'> +2.8511455e+11 </wgt>
<wgt id='1087'> +2.8391747e+11 </wgt>
<wgt id='1088'> +2.8266550e+11 </wgt>
<wgt id='1089'> +2.8265701e+11 </wgt>
<wgt id='1090'> +2.8426955e+11 </wgt>
<wgt id='1091'> +2.8383162e+11 </wgt>
<wgt id='1092'> +2.8346732e+11 </wgt>
<wgt id='1093'> +2.8329081e+11 </wgt>
<wgt id='1094'> +2.8174883e+11 </wgt>
<wgt id='1095'> +2.8403548e+11 </wgt>
<wgt id='1096'> +2.8350557e+11 </wgt>
<wgt id='1097'> +2.8251094e+11 </wgt>
<wgt id='1098'> +2.8306727e+11 </wgt>
<wgt id='1099'> +2.8338218e+11 </wgt>
<wgt id='1100'> +2.8382645e+11 </wgt>
<wgt id='1101'> +2.8338949e+11 </wgt>
<wgt id='1102'> +2.8329261e+11 </wgt>
<wgt id='1103'> +2.8200362e+11 </wgt>
<wgt id='1104'> +2.8369169e+11 </wgt>
<wgt id='1105'> +2.8354757e+11 </wgt>
<wgt id='1106'> +2.8396216e+11 </wgt>
<wgt id='1107'> +2.8393642e+11 </wgt>
<wgt id='1108'> +2.8311669e+11 </wgt>
<wgt id='1109'> +2.8354745e+11 </wgt>
<wgt id='1110'> +2.8347310e+11 </wgt>
<wgt id='1111'> +2.8422773e+11 </wgt>
<wgt id='1112'> +2.8309115e+11 </wgt>
<wgt id='1113'> +2.8377390e+11 </wgt>
<wgt id='1114'> +2.8309816e+11 </wgt>
<wgt id='1115'> +2.8248722e+11 </wgt>
<wgt id='1116'> +2.8456365e+11 </wgt>
<wgt id='1117'> +2.8325632e+11 </wgt>
<wgt id='1118'> +2.8410132e+11 </wgt>
<wgt id='1119'> +2.8266537e+11 </wgt>
<wgt id='1120'> +2.8259757e+11 </wgt>
<wgt id='1121'> +2.8340846e+11 </wgt>
<wgt id='1122'> +2.8272661e+11 </wgt>
<wgt id='1123'> +2.8335172e+11 </wgt>
<wgt id='1124'> +2.8367843e+11 </wgt>
<wgt id='1125'> +2.8364521e+11 </wgt>
<wgt id='1126'> +2.8358608e+11 </wgt>
<wgt id='1127'> +2.8336939e+11 </wgt>
<wgt id='1128'> +2.8329484e+11 </wgt>
<wgt id='1129'> +2.8307051e+11 </wgt>
<wgt id='1130'> +2.8346271e+11 </wgt>
<wgt id='1131'> +2.8433860e+11 </wgt>
<wgt id='1132'> +2.8321142e+11 </wgt>
<wgt id='1133'> +2.8369179e+11 </wgt>
<wgt id='1134'> +2.8330841e+11 </wgt>
<wgt id='1135'> +2.8349940e+11 </wgt>
<wgt id='1136'> +2.8317415e+11 </wgt>
<wgt id='1137'> +2.8305133e+11 </wgt>
<wgt id='1138'> +2.8362065e+11 </wgt>
<wgt id='1139'> +2.8372021e+11 </wgt>
<wgt id='1140'> +2.8381138e+11 </wgt>
<wgt id='1141'> +2.8300751e+11 </wgt>
<wgt id='1142'> +2.8346367e+11 </wgt>
<wgt id='1143'> +2.8374112e+11 </wgt>
<wgt id='1144'> +2.8333044e+11 </wgt>
<wgt id='1145'> +2.8366784e+11 </wgt>
<wgt id='1146'> +2.8361868e+11 </wgt>
<wgt id='1147'> +2.8352766e+11 </wgt>
<wgt id='1148'> +2.8343000e+11 </wgt>
<wgt id='1149'> +2.8343000e+11 </wgt>
<wgt id='1150'> +2.8553495e+11 </wgt>
<wgt id='1151'> +2.7791018e+11 </wgt>
<wgt id='1152'> +2.7759095e+11 </wgt>
<wgt id='1153'> +2.8534516e+11 </wgt>
<wgt id='1154'> +2.7300427e+11 </wgt>
<wgt id='1155'> +3.0058597e+11 </wgt>
<wgt id='1156'> +2.8594795e+11 </wgt>
<wgt id='1157'> +2.8084703e+11 </wgt>
<wgt id='1158'> +2.7884146e+11 </wgt>
<wgt id='1159'> +2.9019807e+11 </wgt>
<wgt id='1160'> +2.7543288e+11 </wgt>
<wgt id='1161'> +2.9938731e+11 </wgt>
<wgt id='1162'> +2.8445183e+11 </wgt>
<wgt id='1163'> +2.8802889e+11 </wgt>
<wgt id='1164'> +2.7052594e+11 </wgt>
<wgt id='1165'> +2.7318729e+11 </wgt>
<wgt id='1166'> +2.8317974e+11 </wgt>
<wgt id='1167'> +2.8001640e+11 </wgt>
<wgt id='1168'> +2.6877666e+11 </wgt>
<wgt id='1169'> +2.7367304e+11 </wgt>
<wgt id='1170'> +2.8340676e+11 </wgt>
<wgt id='1171'> +2.7384463e+11 </wgt>
<wgt id='1172'> +2.6833641e+11 </wgt>
<wgt id='1173'> +2.8890464e+11 </wgt>
<wgt id='1174'> +2.7999552e+11 </wgt>
<wgt id='1175'> +2.7750226e+11 </wgt>
<wgt id='1176'> +2.8930505e+11 </wgt>
<wgt id='1177'> +2.8682914e+11 </wgt>
<wgt id='1178'> +2.8536628e+11 </wgt>
<wgt id='1179'> +2.9525608e+11 </wgt>
<wgt id='1180'> +2.8349598e+11 </wgt>
<wgt id='1181'> +2.8506794e+11 </wgt>
<wgt id='1182'> +2.8397213e+11 </wgt>
<wgt id='1183'> +2.9160966e+11 </wgt>
<wgt id='1184'> +2.6504071e+11 </wgt>
<wgt id='1185'> +2.9161347e+11 </wgt>
<wgt id='1186'> +2.7690754e+11 </wgt>
<wgt id='1187'> +2.9307587e+11 </wgt>
<wgt id='1188'> +2.9606872e+11 </wgt>
<wgt id='1189'> +2.8820188e+11 </wgt>
<wgt id='1190'> +2.8252307e+11 </wgt>
<wgt id='1191'> +2.9851731e+11 </wgt>
<wgt id='1192'> +2.8699483e+11 </wgt>
<wgt id='1193'> +2.8709001e+11 </wgt>
<wgt id='1194'> +2.7299600e+11 </wgt>
<wgt id='1195'> +2.9269080e+11 </wgt>
<wgt id='1196'> +2.8426510e+11 </wgt>
<wgt id='1197'> +2.9074476e+11 </wgt>
<wgt id='1198'> +2.8071409e+11 </wgt>
<wgt id='1199'> +2.8353959e+11 </wgt>
<wgt id='1200'> +2.9118541e+11 </wgt>
<wgt id='1201'> +2.8909449e+11 </wgt>
<wgt id='1202'> +2.8015222e+11 </wgt>
<wgt id='1203'> +2.8915442e+11 </wgt>
<wgt id='1204'> +2.7537263e+11 </wgt>
<wgt id='1205'> +2.9136724e+11 </wgt>
<wgt id='1206'> +2.7870963e+11 </wgt>
<wgt id='1207'> +2.9604672e+11 </wgt>
<wgt id='1208'> +2.7728300e+11 </wgt>
<wgt id='1209'> +2.8307153e+11 </wgt>
<wgt id='1210'> +2.8369805e+11 </wgt>
<wgt id='1211'> +2.8259703e+11 </wgt>
<wgt id='1212'> +2.7675647e+11 </wgt>
<wgt id='1213'> +2.8051475e+11 </wgt>
<wgt id='1214'> +2.7990994e+11 </wgt>
<wgt id='1215'> +2.8553454e+11 </wgt>
<wgt id='1216'> +2.7362190e+11 </wgt>
<wgt id='1217'> +2.8595455e+11 </wgt>
<wgt id='1218'> +2.8107756e+11 </wgt>
<wgt id='1219'> +2.8821083e+11 </wgt>
<wgt id='1220'> +2.7875330e+11 </wgt>
<wgt id='1221'> +2.7099014e+11 </wgt>
<wgt id='1222'> +2.7903838e+11 </wgt>
<wgt id='1223'> +2.7502583e+11 </wgt>
<wgt id='1224'> +2.8096697e+11 </wgt>
<wgt id='1225'> +2.7817823e+11 </wgt>
<wgt id='1226'> +2.8428147e+11 </wgt>
<wgt id='1227'> +2.7217641e+11 </wgt>
<wgt id='1228'> +2.7680459e+11 </wgt>
<wgt id='1229'> +2.9630211e+11 </wgt>
<wgt id='1230'> +2.8564369e+11 </wgt>
<wgt id='1231'> +2.7318729e+11 </wgt>
<wgt id='1232'> +2.9102675e+11 </wgt>
<wgt id='1233'> +2.7936653e+11 </wgt>
<wgt id='1234'> +2.8176376e+11 </wgt>
<wgt id='1235'> +3.0533315e+11 </wgt>
<wgt id='1236'> +2.8603371e+11 </wgt>
<wgt id='1237'> +2.9502532e+11 </wgt>
<wgt id='1238'> +2.9626139e+11 </wgt>
<wgt id='1239'> +2.9205147e+11 </wgt>
<wgt id='1240'> +2.7663337e+11 </wgt>
<wgt id='1241'> +2.8944489e+11 </wgt>
<wgt id='1242'> +2.8318793e+11 </wgt>
<wgt id='1243'> +2.7879202e+11 </wgt>
<wgt id='1244'> +2.9117659e+11 </wgt>
<wgt id='1245'> +2.6684218e+11 </wgt>
<wgt id='1246'> +3.0289377e+11 </wgt>
<wgt id='1247'> +2.8036420e+11 </wgt>
<wgt id='1248'> +2.7551183e+11 </wgt>
<wgt id='1249'> +2.7567496e+11 </wgt>
<wgt id='1250'> +2.9759158e+11 </wgt>
<wgt id='1251'> +3.0990331e+11 </wgt>
<wgt id='1252'> +2.8833610e+11 </wgt>
<wgt id='1253'> +3.1166849e+11 </wgt>
<wgt id='1254'> +2.9346220e+11 </wgt>
<wgt id='1255'> +3.1691644e+11 </wgt>
<wgt id='1256'> +3.1183773e+11 </wgt>
<wgt id='1257'> +2.9506626e+11 </wgt>
<wgt id='1258'> +2.9374818e+11 </wgt>
<wgt id='1259'> +3.2603984e+11 </wgt>
<wgt id='1260'> +3.4659918e+11 </wgt>
<wgt id='1261'> +3.3083609e+11 </wgt>
<wgt id='1262'> +3.0417190e+11 </wgt>
<wgt id='1263'> +3.0933724e+11 </wgt>
<wgt id='1264'> +3.0528540e+11 </wgt>
<wgt id='1265'> +2.8651073e+11 </wgt>
<wgt id='1266'> +3.0810127e+11 </wgt>
<wgt id='1267'> +3.9249608e+11 </wgt>
<wgt id='1268'> +2.8597104e+11 </wgt>
<wgt id='1269'> +2.8355136e+11 </wgt>
<wgt id='1270'> +3.2371808e+11 </wgt>
<wgt id='1271'> +2.5235982e+11 </wgt>
<wgt id='1272'> +3.0224142e+11 </wgt>
<wgt id='1273'> +2.9434983e+11 </wgt>
<wgt id='1274'> +2.9346280e+11 </wgt>
<wgt id='1275'> +2.8948379e+11 </wgt>
<wgt id='1276'> +3.1860168e+11 </wgt>
<wgt id='1277'> +3.1862575e+11 </wgt>
<wgt id='1278'> +3.1164699e+11 </wgt>
<wgt id='1279'> +2.7698997e+11 </wgt>
<wgt id='1280'> +2.9948232e+11 </wgt>
<wgt id='1281'> +2.8611326e+11 </wgt>
<wgt id='1282'> +2.9264953e+11 </wgt>
<wgt id='1283'> +3.3211069e+11 </wgt>
<wgt id='1284'> +2.9798792e+11 </wgt>
<wgt id='1285'> +3.0175824e+11 </wgt>
<wgt id='1286'> +3.5325786e+11 </wgt>
<wgt id='1287'> +3.5239350e+11 </wgt>
<wgt id='1288'> +3.7412717e+11 </wgt>
<wgt id='1289'> +3.3043736e+11 </wgt>
<wgt id='1290'> +3.1792467e+11 </wgt>
<wgt id='1291'> +2.8338633e+11 </wgt>
<wgt id='1292'> +3.1342685e+11 </wgt>
<wgt id='1293'> +3.0594303e+11 </wgt>
<wgt id='1294'> +3.5731519e+11 </wgt>
<wgt id='1295'> +3.1872082e+11 </wgt>
<wgt id='1296'> +3.6357675e+11 </wgt>
<wgt id='1297'> +2.8156080e+11 </wgt>
<wgt id='1298'> +2.9489860e+11 </wgt>
<wgt id='1299'> +3.1083971e+11 </wgt>
<wgt id='1300'> +2.6060527e+11 </wgt>
<wgt id='1301'> +2.7735579e+11 </wgt>
<wgt id='1302'> +2.7567428e+11 </wgt>
<wgt id='1303'> +3.1475628e+11 </wgt>
<wgt id='1304'> +3.5800797e+11 </wgt>
<wgt id='1305'> +2.9617368e+11 </wgt>
<wgt id='1306'> +3.0747971e+11 </wgt>
<wgt id='1307'> +2.7128318e+11 </wgt>
<wgt id='1308'> +3.4294690e+11 </wgt>
<wgt id='1309'> +3.1383861e+11 </wgt>
<wgt id='1310'> +3.0933948e+11 </wgt>
<wgt id='1311'> +2.8874378e+11 </wgt>
<wgt id='1312'> +3.4998356e+11 </wgt>
<wgt id='1313'> +3.2174540e+11 </wgt>
<wgt id='1314'> +2.7768937e+11 </wgt>
<wgt id='1315'> +2.8478290e+11 </wgt>
<wgt id='1316'> +3.0121013e+11 </wgt>
<wgt id='1317'> +3.4515923e+11 </wgt>
<wgt id='1318'> +2.9166129e+11 </wgt>
<wgt id='1319'> +3.0594604e+11 </wgt>
<wgt id='1320'> +3.2967147e+11 </wgt>
<wgt id='1321'> +3.1805366e+11 </wgt>
<wgt id='1322'> +3.3123587e+11 </wgt>
<wgt id='1323'> +2.6997977e+11 </wgt>
<wgt id='1324'> +3.2641831e+11 </wgt>
<wgt id='1325'> +3.1950669e+11 </wgt>
<wgt id='1326'> +3.1990320e+11 </wgt>
<wgt id='1327'> +3.3428733e+11 </wgt>
<wgt id='1328'> +3.1615701e+11 </wgt>
<wgt id='1329'> +2.9354217e+11 </wgt>
<wgt id='1330'> +2.7683277e+11 </wgt>
<wgt id='1331'> +3.3216309e+11 </wgt>
<wgt id='1332'> +3.1857791e+11 </wgt>
<wgt id='1333'> +3.0473299e+11 </wgt>
<wgt id='1334'> +3.3964421e+11 </wgt>
<wgt id='1335'> +2.8009426e+11 </wgt>
<wgt id='1336'> +3.4638877e+11 </wgt>
<wgt id='1337'> +3.1400460e+11 </wgt>
<wgt id='1338'> +2.8160574e+11 </wgt>
<wgt id='1339'> +3.0054162e+11 </wgt>
<wgt id='1340'> +3.3909435e+11 </wgt>
<wgt id='1341'> +3.7376188e+11 </wgt>
<wgt id='1342'> +2.8601482e+11 </wgt>
<wgt id='1343'> +3.1262008e+11 </wgt>
<wgt id='1344'> +3.3469659e+11 </wgt>
<wgt id='1345'> +2.3463119e+11 </wgt>
<wgt id='1346'> +3.0896272e+11 </wgt>
<wgt id='1347'> +3.0660240e+11 </wgt>
<wgt id='1348'> +2.8916273e+11 </wgt>
<wgt id='1349'> +2.9426925e+11 </wgt>
<wgt id='1350'> +3.4145037e+11 </wgt>
<wgt id='1351'> +2.8720387e+11 </wgt>
<wgt id='1352'> +3.1195033e+11 </wgt>
<wgt id='1353'> +3.1290451e+11 </wgt>
<wgt id='1354'> +3.1913504e+11 </wgt>
<wgt id='1355'> +2.8490015e+11 </wgt>
<wgt id='1356'> +2.8749281e+11 </wgt>
<wgt id='1357'> +2.8806044e+11 </wgt>
<wgt id='1358'> +2.8259910e+11 </wgt>
<wgt id='1359'> +2.8213084e+11 </wgt>
<wgt id='1360'> +2.7951957e+11 </wgt>
<wgt id='1361'> +2.8329906e+11 </wgt>
<wgt id='1362'> +2.9424091e+11 </wgt>
<wgt id='1363'> +2.8462591e+11 </wgt>
<wgt id='1364'> +2.9947506e+11 </wgt>
<wgt id='1365'> +2.8217991e+11 </wgt>
<wgt id='1366'> +2.8284284e+11 </wgt>
<wgt id='1367'> +2.7930005e+11 </wgt>
<wgt id='1368'> +2.8957503e+11 </wgt>
<wgt id='1369'> +2.8811267e+11 </wgt>
<wgt id='1370'> +2.7542749e+11 </wgt>
<wgt id='1371'> +2.8013337e+11 </wgt>
<wgt id='1372'> +2.7897296e+11 </wgt>
<wgt id='1373'> +2.9245010e+11 </wgt>
<wgt id='1374'> +2.8373481e+11 </wgt>
<wgt id='1375'> +2.8732767e+11 </wgt>
<wgt id='1376'> +2.8580088e+11 </wgt>
<wgt id='1377'> +2.8345173e+11 </wgt>
<wgt id='1378'> +2.9063661e+11 </wgt>
<wgt id='1379'> +2.8185288e+11 </wgt>
<wgt id='1380'> +2.8224227e+11 </wgt>
<wgt id='1381'> +2.8835327e+11 </wgt>
<wgt id='1382'> +2.8025770e+11 </wgt>
<wgt id='1383'> +2.8109919e+11 </wgt>
<wgt id='1384'> +2.7526596e+11 </wgt>
<wgt id='1385'> +2.7896653e+11 </wgt>
<wgt id='1386'> +2.8049062e+11 </wgt>
<wgt id='1387'> +2.8538945e+11 </wgt>
<wgt id='1388'> +2.8244144e+11 </wgt>
<wgt id='1389'> +2.7948502e+11 </wgt>
<wgt id='1390'> +2.8847992e+11 </wgt>
<wgt id='1391'> +2.9075278e+11 </wgt>
<wgt id='1392'> +2.7528112e+11 </wgt>
<wgt id='1393'> +2.8943690e+11 </wgt>
<wgt id='1394'> +2.8822239e+11 </wgt>
<wgt id='1395'> +2.7636402e+11 </wgt>
<wgt id='1396'> +2.8489726e+11 </wgt>
<wgt id='1397'> +2.8351524e+11 </wgt>
<wgt id='1398'> +2.9596735e+11 </wgt>
<wgt id='1399'> +2.8189711e+11 </wgt>
<wgt id='1400'> +2.7800521e+11 </wgt>
<wgt id='1401'> +2.8236485e+11 </wgt>
<wgt id='1402'> +2.8672869e+11 </wgt>
<wgt id='1403'> +2.9926879e+11 </wgt>
<wgt id='1404'> +2.8940032e+11 </wgt>
<wgt id='1405'> +2.9806396e+11 </wgt>
<wgt id='1406'> +2.9242723e+11 </wgt>
<wgt id='1407'> +2.9219720e+11 </wgt>
<wgt id='1408'> +2.9948032e+11 </wgt>
<wgt id='1409'> +2.7707654e+11 </wgt>
<wgt id='1410'> +2.7911669e+11 </wgt>
<wgt id='1411'> +2.8429333e+11 </wgt>
<wgt id='1412'> +2.9189011e+11 </wgt>
<wgt id='1413'> +2.9385706e+11 </wgt>
<wgt id='1414'> +2.8798612e+11 </wgt>
<wgt id='1415'> +2.7742353e+11 </wgt>
<wgt id='1416'> +2.8418135e+11 </wgt>
<wgt id='1417'> +2.8058823e+11 </wgt>
<wgt id='1418'> +2.8191125e+11 </wgt>
<wgt id='1419'> +2.8645660e+11 </wgt>
<wgt id='1420'> +2.7065995e+11 </wgt>
<wgt id='1421'> +2.9470727e+11 </wgt>
<wgt id='1422'> +2.7357851e+11 </wgt>
<wgt id='1423'> +2.8599095e+11 </wgt>
<wgt id='1424'> +2.8125031e+11 </wgt>
<wgt id='1425'> +2.8331017e+11 </wgt>
<wgt id='1426'> +2.9049393e+11 </wgt>
<wgt id='1427'> +2.8027193e+11 </wgt>
<wgt id='1428'> +2.7898509e+11 </wgt>
<wgt id='1429'> +2.8535000e+11 </wgt>
<wgt id='1430'> +2.8092365e+11 </wgt>
<wgt id='1431'> +2.8796687e+11 </wgt>
<wgt id='1432'> +2.7534505e+11 </wgt>
<wgt id='1433'> +2.7512219e+11 </wgt>
<wgt id='1434'> +2.8610548e+11 </wgt>
<wgt id='1435'> +2.8721748e+11 </wgt>
<wgt id='1436'> +2.8800491e+11 </wgt>
<wgt id='1437'> +2.8248255e+11 </wgt>
<wgt id='1438'> +2.8416948e+11 </wgt>
<wgt id='1439'> +2.9510566e+11 </wgt>
<wgt id='1440'> +2.8363807e+11 </wgt>
<wgt id='1441'> +2.8031644e+11 </wgt>
<wgt id='1442'> +2.8456576e+11 </wgt>
<wgt id='1443'> +2.7719502e+11 </wgt>
<wgt id='1444'> +2.9669569e+11 </wgt>
<wgt id='1445'> +2.7962150e+11 </wgt>
<wgt id='1446'> +2.9979048e+11 </wgt>
<wgt id='1447'> +2.9015798e+11 </wgt>
<wgt id='1448'> +2.8846358e+11 </wgt>
<wgt id='1449'> +2.8622446e+11 </wgt>
<wgt id='1450'> +2.8172930e+11 </wgt>
<wgt id='1451'> +2.7990869e+11 </wgt>
<wgt id='1452'> +2.8894838e+11 </wgt>
<wgt id='1453'> +2.9289463e+11 </wgt>
<wgt id='1454'> +2.7457414e+11 </wgt>
<wgt id='1455'> +2.8368524e+11 </wgt>
<wgt id='1456'> +2.8148121e+11 </wgt>
<wgt id='1457'> +2.8686224e+11 </wgt>
<wgt id='1458'> +2.9564442e+11 </wgt>
<wgt id='1459'> +3.1581424e+11 </wgt>
<wgt id='1460'> +3.0984946e+11 </wgt>
<wgt id='1461'> +3.8016892e+11 </wgt>
<wgt id='1462'> +3.0979484e+11 </wgt>
<wgt id='1463'> +3.1000388e+11 </wgt>
<wgt id='1464'> +3.0952672e+11 </wgt>
<wgt id='1465'> +3.0986945e+11 </wgt>
<wgt id='1466'> +3.0972669e+11 </wgt>
<wgt id='1467'> +3.0987847e+11 </wgt>
<wgt id='1468'> +3.0965760e+11 </wgt>
<wgt id='1469'> +3.0935681e+11 </wgt>
<wgt id='1470'> +3.1015054e+11 </wgt>
<wgt id='1471'> +3.1023780e+11 </wgt>
<wgt id='1472'> +3.0933857e+11 </wgt>
<wgt id='1473'> +3.1106688e+11 </wgt>
<wgt id='1474'> +3.0857297e+11 </wgt>
<wgt id='1475'> +3.1097990e+11 </wgt>
<wgt id='1476'> +3.0895501e+11 </wgt>
<wgt id='1477'> +3.0924396e+11 </wgt>
<wgt id='1478'> +3.1108222e+11 </wgt>
<wgt id='1479'> +3.0959989e+11 </wgt>
<wgt id='1480'> +3.0993931e+11 </wgt>
<wgt id='1481'> +3.0901892e+11 </wgt>
<wgt id='1482'> +3.1084797e+11 </wgt>
<wgt id='1483'> +3.0980790e+11 </wgt>
<wgt id='1484'> +3.0978559e+11 </wgt>
<wgt id='1485'> +3.0998597e+11 </wgt>
<wgt id='1486'> +3.0933396e+11 </wgt>
<wgt id='1487'> +3.1006129e+11 </wgt>
<wgt id='1488'> +3.0945788e+11 </wgt>
<wgt id='1489'> +3.0938926e+11 </wgt>
<wgt id='1490'> +3.1089519e+11 </wgt>
<wgt id='1491'> +3.1523100e+11 </wgt>
<wgt id='1492'> +3.0676837e+11 </wgt>
<wgt id='1493'> +3.0586059e+11 </wgt>
<wgt id='1494'> +3.2213334e+11 </wgt>
<wgt id='1495'> +3.0870873e+11 </wgt>
<wgt id='1496'> +3.1096279e+11 </wgt>
<wgt id='1497'> +3.1005470e+11 </wgt>
<wgt id='1498'> +3.0944104e+11 </wgt>
<wgt id='1499'> +3.1229232e+11 </wgt>
<wgt id='1500'> +3.0843455e+11 </wgt>
<wgt id='1501'> +3.0989207e+11 </wgt>
<wgt id='1502'> +3.0956563e+11 </wgt>
<wgt id='1503'> +3.0349160e+11 </wgt>
<wgt id='1504'> +3.1712173e+11 </wgt>
<wgt id='1505'> +3.1005148e+11 </wgt>
<wgt id='1506'> +3.0954118e+11 </wgt>
<wgt id='1507'> +3.1576942e+11 </wgt>
<wgt id='1508'> +2.9877720e+11 </wgt>
<wgt id='1509'> +3.1087095e+11 </wgt>
<wgt id='1510'> +3.0513293e+11 </wgt>
<wgt id='1511'> +3.1098267e+11 </wgt>
<wgt id='1512'> +3.0967129e+11 </wgt>
<wgt id='1513'> +3.0942058e+11 </wgt>
<wgt id='1514'> +3.1022687e+11 </wgt>
<wgt id='1515'> +3.1585101e+11 </wgt>
<wgt id='1516'> +3.0786316e+11 </wgt>
<wgt id='1517'> +3.0896969e+11 </wgt>
<wgt id='1518'> +3.1125457e+11 </wgt>
<wgt id='1519'> +3.0735878e+11 </wgt>
<wgt id='1520'> +3.1151452e+11 </wgt>
<wgt id='1521'> +3.0795975e+11 </wgt>
<wgt id='1522'> +3.1079759e+11 </wgt>
<wgt id='1523'> +3.1117048e+11 </wgt>
<wgt id='1524'> +3.1162856e+11 </wgt>
<wgt id='1525'> +3.1007139e+11 </wgt>
<wgt id='1526'> +3.1202473e+11 </wgt>
<wgt id='1527'> +3.0979484e+11 </wgt>
<wgt id='1528'> +3.0709725e+11 </wgt>
<wgt id='1529'> +3.1251729e+11 </wgt>
<wgt id='1530'> +3.0152890e+11 </wgt>
<wgt id='1531'> +3.1982299e+11 </wgt>
<wgt id='1532'> +3.2227097e+11 </wgt>
<wgt id='1533'> +3.1345358e+11 </wgt>
<wgt id='1534'> +3.1746234e+11 </wgt>
<wgt id='1535'> +3.2397118e+11 </wgt>
<wgt id='1536'> +3.1461522e+11 </wgt>
<wgt id='1537'> +3.2460107e+11 </wgt>
<wgt id='1538'> +3.1472332e+11 </wgt>
<wgt id='1539'> +3.2510098e+11 </wgt>
<wgt id='1540'> +3.2333776e+11 </wgt>
<wgt id='1541'> +3.2265445e+11 </wgt>
<wgt id='1542'> +3.2070028e+11 </wgt>
<wgt id='1543'> +3.2291614e+11 </wgt>
<wgt id='1544'> +3.1781431e+11 </wgt>
<wgt id='1545'> +3.1793782e+11 </wgt>
<wgt id='1546'> +3.1627852e+11 </wgt>
<wgt id='1547'> +3.2200047e+11 </wgt>
<wgt id='1548'> +3.1941111e+11 </wgt>
<wgt id='1549'> +3.1620155e+11 </wgt>
<wgt id='1550'> +3.2326134e+11 </wgt>
<wgt id='1551'> +3.2053857e+11 </wgt>
<wgt id='1552'> +3.2051710e+11 </wgt>
<wgt id='1553'> +3.2934728e+11 </wgt>
<wgt id='1554'> +3.2063092e+11 </wgt>
<wgt id='1555'> +3.2080672e+11 </wgt>
<wgt id='1556'> +3.2191960e+11 </wgt>
<wgt id='1557'> +3.1975152e+11 </wgt>
<wgt id='1558'> +3.2002240e+11 </wgt>
<wgt id='1559'> +3.1758751e+11 </wgt>
<wgt id='1560'> +3.1961616e+11 </wgt>
<wgt id='1561'> +3.1885482e+11 </wgt>
<wgt id='1562'> +3.1668503e+11 </wgt>
<wgt id='1563'> +3.2029381e+11 </wgt>
<wgt id='1564'> +3.1947118e+11 </wgt>
<wgt id='1565'> +3.2446552e+11 </wgt>
<wgt id='1566'> +3.1978836e+11 </wgt>
<wgt id='1567'> +3.1806139e+11 </wgt>
<wgt id='1568'> +3.1960631e+11 </wgt>
<wgt id='1569'> +3.1909098e+11 </wgt>
<wgt id='1570'> +3.2743375e+11 </wgt>
<wgt id='1571'> +3.1962635e+11 </wgt>
<wgt id='1572'> +3.2002718e+11 </wgt>
<wgt id='1573'> +3.2634299e+11 </wgt>
<wgt id='1574'> +2.4294333e+11 </wgt>
<wgt id='1575'> +2.4300440e+11 </wgt>
<wgt id='1576'> +2.4287368e+11 </wgt>
<wgt id='1577'> +2.4296081e+11 </wgt>
<wgt id='1578'> +2.4350348e+11 </wgt>
<wgt id='1579'> +2.4366974e+11 </wgt>
<wgt id='1580'> +2.4343033e+11 </wgt>
<wgt id='1581'> +2.4262580e+11 </wgt>
<wgt id='1582'> +2.4239326e+11 </wgt>
<wgt id='1583'> +2.4244667e+11 </wgt>
<wgt id='1584'> +2.4350042e+11 </wgt>
<wgt id='1585'> +2.4328210e+11 </wgt>
<wgt id='1586'> +2.4235710e+11 </wgt>
<wgt id='1587'> +2.4241493e+11 </wgt>
<wgt id='1588'> +2.4202647e+11 </wgt>
<wgt id='1589'> +2.4254216e+11 </wgt>
<wgt id='1590'> +2.4280482e+11 </wgt>
<wgt id='1591'> +2.4302523e+11 </wgt>
<wgt id='1592'> +2.4203744e+11 </wgt>
<wgt id='1593'> +2.4167979e+11 </wgt>
<wgt id='1594'> +2.4421208e+11 </wgt>
<wgt id='1595'> +2.4020287e+11 </wgt>
<wgt id='1596'> +2.4769027e+11 </wgt>
<wgt id='1597'> +2.4476133e+11 </wgt>
<wgt id='1598'> +2.4477799e+11 </wgt>
<wgt id='1599'> +2.3974103e+11 </wgt>
<wgt id='1600'> +2.4818198e+11 </wgt>
<wgt id='1601'> +2.4509063e+11 </wgt>
<wgt id='1602'> +2.4311510e+11 </wgt>
<wgt id='1603'> +2.5984038e+11 </wgt>
<wgt id='1604'> +2.4286583e+11 </wgt>
</rwgt>
</event>
<event>
 9      1 +2.8343000e+11 1.39999900e+03 7.81738600e-03 7.88881200e-02
       21 -1    0    0  504  503 +0.0000000000e+00 +0.0000000000e+00 +2.4320277048e+02 2.4320277048e+02 0.0000000000e+00 0.0000e+00 -1.0000e+00
       21 -1    0    0  503  504 -0.0000000000e+00 -0.0000000000e+00 -2.0147781238e+03 2.0147781238e+03 0.0000000000e+00 0.0000e+00 -1.0000e+00
       45  2    1    2    0    0 +0.0000000000e+00 +0.0000000000e+00 -1.7715753533e+03 2.2579808943e+03 1.3999994595e+03 0.0000e+00 0.0000e+00
       25  2    3    3    0    0 -5.1545257091e+02 +2.9152263652e+02 -1.4650134115e+03 1.5851085417e+03 1.2501196973e+02 0.0000e+00 0.0000e+00
       35  2    3    3    0    0 +5.1545257091e+02 -2.9152263652e+02 -3.0656194179e+02 6.7287235258e+02 9.0000990283e+01 0.0000e+00 0.0000e+00
        5  1    5    5  501    0 +1.4278498796e+02 -1.2231890950e+02 -7.3871435553e+01 2.0205003141e+02 4.2140000000e+00 0.0000e+00 -1.0000e+00
       -5  1    5    5    0  501 +3.7266758295e+02 -1.6920372702e+02 -2.3269050623e+02 4.7082232117e+02 4.2140000000e+00 0.0000e+00 -1.0000e+00
        5  1    4    4  502    0 -1.5149258858e+02 +5.0219527288e+01 -5.2230691310e+02 5.4616323072e+02 4.2140000000e+00 0.0000e+00 1.0000e+00
       -5  1    4    4    0  502 -3.6395998233e+02 +2.4130310923e+02 -9.4270649844e+02 1.0389453110e+03 4.2140000000e+00 0.0000e+00 1.0000e+00
<mgrwt>
<rscale>  0 0.13999995E+04</rscale>
<asrwt>0</asrwt>
<pdfrwt beam="1">  1       21 0.37415813E-01 0.13999995E+04</pdfrwt>
<pdfrwt beam="2">  1       21 0.30996585E+00 0.13999995E+04</pdfrwt>
<totfact> 0.11768452E+02</totfact>
</mgrwt>
<rwgt>
<wgt id='1001'> +2.8343000e+11 </wgt>
<wgt id='1002'> +2.9163583e+11 </wgt>
<wgt id='1003'> +2.9163234e+11 </wgt>
<wgt id='1004'> +3.3192018e+11 </wgt>
<wgt id='1005'> +2.8343000e+11 </wgt>
<wgt id='1006'> +2.8343000e+11 </wgt>
<wgt id='1007'> +2.9163583e+11 </wgt>
<wgt id='1008'> +2.9163234e+11 </wgt>
<wgt id='1009'> +3.3192018e+11 </wgt>
<wgt id='1010'> +2.8343000e+11 </wgt>
<wgt id='1011'> +2.8343000e+11 </wgt>
<wgt id='1012'> +2.9163583e+11 </wgt>
<wgt id='1013'> +2.9163234e+11 </wgt>
<wgt id='1014'> +3.3192018e+11 </wgt>
<wgt id='1015'> +2.8343000e+11 </wgt>
<wgt id='1016'> +2.5147003e+11 </wgt>
<wgt id='1017'> +2.5831875e+11 </wgt>
<wgt id='1018'> +2.5831584e+11 </wgt>
<wgt id='1019'> +2.9163234e+11 </wgt>
<wgt id='1020'> +2.5147003e+11 </wgt>
<wgt id='1021'> +2.5147003e+11 </wgt>
<wgt id='1022'> +2.5831875e+11 </wgt>
<wgt id='1023'> +2.5831584e+11 </wgt>
<wgt id='1024'> +2.9163234e+11 </wgt>
<wgt id='1025'> +2.5147003e+11 </wgt>
<wgt id='1026'> +2.5147003e+11 </wgt>
<wgt id='1027'> +2.5831875e+11 </wgt>
<wgt id='1028'> +2.5831584e+11 </wgt>
<wgt id='1029'> +2.9163234e+11 </wgt>
<wgt id='1030'> +2.5147003e+11 </wgt>
<wgt id='1031'> +3.2196016e+11 </wgt>
<wgt id='1032'> +3.3192443e+11 </wgt>
<wgt id='1033'> +3.3192018e+11 </wgt>
<wgt id='1034'> +3.8110318e+11 </wgt>
<wgt id='1035'> +3.2196016e+11 </wgt>
<wgt id='1036'> +3.2196016e+11 </wgt>
<wgt id='1037'> +3.3192443e+11 </wgt>
<wgt id='1038'> +3.3192018e+11 </wgt>
<wgt id='1039'> +3.8110318e+11 </wgt>
<wgt id='1040'> +3.2196016e+11 </wgt>
<wgt id='1041'> +3.2196016e+11 </wgt>
<wgt id='1042'> +3.3192443e+11 </wgt>
<wgt id='1043'> +3.3192018e+11 </wgt>
<wgt id='1044'> +3.8110318e+11 </wgt>
<wgt id='1045'> +3.2196016e+11 </wgt>
<wgt id='1046'> +2.8343000e+11 </wgt>
<wgt id='1047'> +2.8343000e+11 </wgt>
<wgt id='1048'> +2.8343000e+11 </wgt>
<wgt id='1049'> +2.8343379e+11 </wgt>
<wgt id='1050'> +2.8233943e+11 </wgt>
<wgt id='1051'> +2.8339684e+11 </wgt>
<wgt id='1052'> +2.8354253e+11 </wgt>
<wgt id='1053'> +2.8189519e+11 </wgt>
<wgt id='1054'> +2.8564983e+11 </wgt>
<wgt id='1055'> +2.8201259e+11 </wgt>
<wgt id='1056'> +2.8166993e+11 </wgt>
<wgt id='1057'> +2.8262416e+11 </wgt>
<wgt id='1058'> +2.8364072e+11 </wgt>
<wgt id='1059'> +2.8552323e+11 </wgt>
<wgt id='1060'> +2.8273481e+11 </wgt>
<wgt id='1061'> +2.8470244e+11 </wgt>
<wgt id='1062'> +2.8533756e+11 </wgt>
<wgt id='1063'> +2.8461895e+11 </wgt>
<wgt id='1064'> +2.8524433e+11 </wgt>
<wgt id='1065'> +2.8535671e+11 </wgt>
<wgt id='1066'> +2.8252487e+11 </wgt>
<wgt id='1067'> +2.8184317e+11 </wgt>
<wgt id='1068'> +2.8424046e+11 </wgt>
<wgt id='1069'> +2.8247659e+11 </wgt>
<wgt id='1070'> +2.8240076e+11 </wgt>
<wgt id='1071'> +2.8529153e+11 </wgt>
<wgt id='1072'> +2.8073366e+11 </wgt>
<wgt id='1073'> +2.8378120e+11 </wgt>
<wgt id='1074'> +2.8350642e+11 </wgt>
<wgt id='1075'> +2.8118426e+11 </wgt>
<wgt id='1076'> +2.8435886e+11 </wgt>
<wgt id='1077'> +2.7996954e+11 </wgt>
<wgt id='1078'> +2.8133609e+11 </wgt>
<wgt id='1079'> +2.8306922e+11 </wgt>
<wgt id='1080'> +2.8337969e+11 </wgt>
<wgt id='1081'> +2.8296725e+11 </wgt>
<wgt id='1082'> +2.8331722e+11 </wgt>
<wgt id='1083'> +2.8404974e+11 </wgt>
<wgt id='1084'> +2.8391204e+11 </wgt>
<wgt id='1085'> +2.8201460e+11 </wgt>
<wgt id='1086'> +2.8571532e+11 </wgt>
<wgt id='1087'> +2.8429185e+11 </wgt>
<wgt id='1088'> +2.8300797e+11 </wgt>
<wgt id='1089'> +2.8268862e+11 </wgt>
<wgt id='1090'> +2.8433732e+11 </wgt>
<wgt id='1091'> +2.8390210e+11 </wgt>
<wgt id='1092'> +2.8319027e+11 </wgt>
<wgt id='1093'> +2.8305567e+11 </wgt>
<wgt id='1094'> +2.8149690e+11 </wgt>
<wgt id='1095'> +2.8405800e+11 </wgt>
<wgt id='1096'> +2.8369855e+11 </wgt>
<wgt id='1097'> +2.8244338e+11 </wgt>
<wgt id='1098'> +2.8323250e+11 </wgt>
<wgt id='1099'> +2.8370084e+11 </wgt>
<wgt id='1100'> +2.8366723e+11 </wgt>
<wgt id='1101'> +2.8355156e+11 </wgt>
<wgt id='1102'> +2.8334003e+11 </wgt>
<wgt id='1103'> +2.8163889e+11 </wgt>
<wgt id='1104'> +2.8387906e+11 </wgt>
<wgt id='1105'> +2.8360510e+11 </wgt>
<wgt id='1106'> +2.8401534e+11 </wgt>
<wgt id='1107'> +2.8412851e+11 </wgt>
<wgt id='1108'> +2.8308383e+11 </wgt>
<wgt id='1109'> +2.8368457e+11 </wgt>
<wgt id='1110'> +2.8335057e+11 </wgt>
<wgt id='1111'> +2.8458877e+11 </wgt>
<wgt id='1112'> +2.8293127e+11 </wgt>
<wgt id='1113'> +2.8372659e+11 </wgt>
<wgt id='1114'> +2.8310447e+11 </wgt>
<wgt id='1115'> +2.8206392e+11 </wgt>
<wgt id='1116'> +2.8479609e+11 </wgt>
<wgt id='1117'> +2.8324813e+11 </wgt>
<wgt id='1118'> +2.8429852e+11 </wgt>
<wgt id='1119'> +2.8243488e+11 </wgt>
<wgt id='1120'> +2.8221963e+11 </wgt>
<wgt id='1121'> +2.8327702e+11 </wgt>
<wgt id='1122'> +2.8252200e+11 </wgt>
<wgt id='1123'> +2.8337036e+11 </wgt>
<wgt id='1124'> +2.8382327e+11 </wgt>
<wgt id='1125'> +2.8360490e+11 </wgt>
<wgt id='1126'> +2.8364395e+11 </wgt>
<wgt id='1127'> +2.8339979e+11 </wgt>
<wgt id='1128'> +2.8322421e+11 </wgt>
<wgt id='1129'> +2.8297187e+11 </wgt>
<wgt id='1130'> +2.8346745e+11 </wgt>
<wgt id='1131'> +2.8460361e+11 </wgt>
<wgt id='1132'> +2.8314203e+11 </wgt>
<wgt id='1133'> +2.8372737e+11 </wgt>
<wgt id='1134'> +2.8330800e+11 </wgt>
<wgt id='1135'> +2.8353592e+11 </wgt>
<wgt id='1136'> +2.8310569e+11 </wgt>
<wgt id='1137'> +2.8295952e+11 </wgt>
<wgt id='1138'> +2.8363891e+11 </wgt>
<wgt id='1139'> +2.8380044e+11 </wgt>
<wgt id='1140'> +2.8389867e+11 </wgt>
<wgt id='1141'> +2.8291658e+11 </wgt>
<wgt id='1142'> +2.8346165e+11 </wgt>
<wgt id='1143'> +2.8382301e+11 </wgt>
<wgt id='1144'> +2.8334155e+11 </wgt>
<wgt id='1145'> +2.8370898e+11 </wgt>
<wgt id='1146'> +2.8368625e+11 </wgt>
<wgt id='1147'> +2.8354735e+11 </wgt>
<wgt id='1148'> +2.8343000e+11 </wgt>
<wgt id='1149'> +2.8343000e+11 </wgt>
<wgt id='1150'> +2.8034085e+11 </wgt>
<wgt id='1151'> +2.7949261e+11 </wgt>
<wgt id='1152'> +2.8463334e+11 </wgt>
<wgt id='1153'> +2.8556503e+11 </wgt>
<wgt id='1154'> +2.6882946e+11 </wgt>
<wgt id='1155'> +3.0142862e+11 </wgt>
<wgt id='1156'> +2.8740297e+11 </wgt>
<wgt id='1157'> +2.8253367e+11 </wgt>
<wgt id='1158'> +2.8247017e+11 </wgt>
<wgt id='1159'> +2.9207789e+11 </wgt>
<wgt id='1160'> +2.6606876e+11 </wgt>
<wgt id='1161'> +3.0017863e+11 </wgt>
<wgt id='1162'> +2.8018527e+11 </wgt>
<wgt id='1163'> +2.8670180e+11 </wgt>
<wgt id='1164'> +2.6433520e+11 </wgt>
<wgt id='1165'> +2.7764178e+11 </wgt>
<wgt id='1166'> +2.8151822e+11 </wgt>
<wgt id='1167'> +2.7967137e+11 </wgt>
<wgt id='1168'> +2.6430987e+11 </wgt>
<wgt id='1169'> +2.6876165e+11 </wgt>
<wgt id='1170'> +2.8253542e+11 </wgt>
<wgt id='1171'> +2.7188591e+11 </wgt>
<wgt id='1172'> +2.6445024e+11 </wgt>
<wgt id='1173'> +2.8917610e+11 </wgt>
<wgt id='1174'> +2.8243989e+11 </wgt>
<wgt id='1175'> +2.7733958e+11 </wgt>
<wgt id='1176'> +2.9007576e+11 </wgt>
<wgt id='1177'> +2.9262885e+11 </wgt>
<wgt id='1178'> +2.8246203e+11 </wgt>
<wgt id='1179'> +2.9788727e+11 </wgt>
<wgt id='1180'> +2.9135200e+11 </wgt>
<wgt id='1181'> +2.7579612e+11 </wgt>
<wgt id='1182'> +2.8201141e+11 </wgt>
<wgt id='1183'> +2.9403142e+11 </wgt>
<wgt id='1184'> +2.7032663e+11 </wgt>
<wgt id='1185'> +2.9026679e+11 </wgt>
<wgt id='1186'> +2.7373443e+11 </wgt>
<wgt id='1187'> +2.9895528e+11 </wgt>
<wgt id='1188'> +2.9767709e+11 </wgt>
<wgt id='1189'> +2.9396512e+11 </wgt>
<wgt id='1190'> +2.8619764e+11 </wgt>
<wgt id='1191'> +3.0542856e+11 </wgt>
<wgt id='1192'> +2.8707235e+11 </wgt>
<wgt id='1193'> +2.8753194e+11 </wgt>
<wgt id='1194'> +2.7021851e+11 </wgt>
<wgt id='1195'> +2.9281837e+11 </wgt>
<wgt id='1196'> +2.7763508e+11 </wgt>
<wgt id='1197'> +2.9021423e+11 </wgt>
<wgt id='1198'> +2.7491500e+11 </wgt>
<wgt id='1199'> +2.8832383e+11 </wgt>
<wgt id='1200'> +2.8421407e+11 </wgt>
<wgt id='1201'> +2.9416298e+11 </wgt>
<wgt id='1202'> +2.7728455e+11 </wgt>
<wgt id='1203'> +2.8867178e+11 </wgt>
<wgt id='1204'> +2.7086445e+11 </wgt>
<wgt id='1205'> +2.9466582e+11 </wgt>
<wgt id='1206'> +2.7494792e+11 </wgt>
<wgt id='1207'> +2.9939344e+11 </wgt>
<wgt id='1208'> +2.8224699e+11 </wgt>
<wgt id='1209'> +2.7807603e+11 </wgt>
<wgt id='1210'> +2.8506994e+11 </wgt>
<wgt id='1211'> +2.8853101e+11 </wgt>
<wgt id='1212'> +2.7006221e+11 </wgt>
<wgt id='1213'> +2.7749166e+11 </wgt>
<wgt id='1214'> +2.7842621e+11 </wgt>
<wgt id='1215'> +2.9692395e+11 </wgt>
<wgt id='1216'> +2.7785099e+11 </wgt>
<wgt id='1217'> +2.8537802e+11 </wgt>
<wgt id='1218'> +2.7627698e+11 </wgt>
<wgt id='1219'> +2.8309799e+11 </wgt>
<wgt id='1220'> +2.7455828e+11 </wgt>
<wgt id='1221'> +2.6518251e+11 </wgt>
<wgt id='1222'> +2.7718671e+11 </wgt>
<wgt id='1223'> +2.7553421e+11 </wgt>
<wgt id='1224'> +2.8009292e+11 </wgt>
<wgt id='1225'> +2.7939506e+11 </wgt>
<wgt id='1226'> +2.8303637e+11 </wgt>
<wgt id='1227'> +2.6417964e+11 </wgt>
<wgt id='1228'> +2.6974018e+11 </wgt>
<wgt id='1229'> +2.9394593e+11 </wgt>
<wgt id='1230'> +2.8498185e+11 </wgt>
<wgt id='1231'> +2.7764178e+11 </wgt>
<wgt id='1232'> +2.9087956e+11 </wgt>
<wgt id='1233'> +2.8093242e+11 </wgt>
<wgt id='1234'> +2.8889964e+11 </wgt>
<wgt id='1235'> +3.0696469e+11 </wgt>
<wgt id='1236'> +2.9074058e+11 </wgt>
<wgt id='1237'> +2.9587487e+11 </wgt>
<wgt id='1238'> +3.1319981e+11 </wgt>
<wgt id='1239'> +2.9547235e+11 </wgt>
<wgt id='1240'> +2.8329678e+11 </wgt>
<wgt id='1241'> +2.8398104e+11 </wgt>
<wgt id='1242'> +2.8402568e+11 </wgt>
<wgt id='1243'> +2.7442846e+11 </wgt>
<wgt id='1244'> +2.8843382e+11 </wgt>
<wgt id='1245'> +2.7233479e+11 </wgt>
<wgt id='1246'> +3.0285002e+11 </wgt>
<wgt id='1247'> +2.7776246e+11 </wgt>
<wgt id='1248'> +2.7585499e+11 </wgt>
<wgt id='1249'> +2.7584725e+11 </wgt>
<wgt id='1250'> +2.9846188e+11 </wgt>
<wgt id='1251'> +3.1231626e+11 </wgt>
<wgt id='1252'> +2.8633470e+11 </wgt>
<wgt id='1253'> +3.1926933e+11 </wgt>
<wgt id='1254'> +2.9339925e+11 </wgt>
<wgt id='1255'> +3.2053434e+11 </wgt>
<wgt id='1256'> +3.1484872e+11 </wgt>
<wgt id='1257'> +2.8438697e+11 </wgt>
<wgt id='1258'> +2.9658911e+11 </wgt>
<wgt id='1259'> +3.3326532e+11 </wgt>
<wgt id='1260'> +3.5777904e+11 </wgt>
<wgt id='1261'> +3.4376086e+11 </wgt>
<wgt id='1262'> +3.0737348e+11 </wgt>
<wgt id='1263'> +3.1393502e+11 </wgt>
<wgt id='1264'> +3.0428476e+11 </wgt>
<wgt id='1265'> +2.8231714e+11 </wgt>
<wgt id='1266'> +3.0556133e+11 </wgt>
<wgt id='1267'> +4.1170712e+11 </wgt>
<wgt id='1268'> +2.8335440e+11 </wgt>
<wgt id='1269'> +2.7737158e+11 </wgt>
<wgt id='1270'> +3.3027860e+11 </wgt>
<wgt id='1271'> +2.4083082e+11 </wgt>
<wgt id='1272'> +3.0391400e+11 </wgt>
<wgt id='1273'> +2.9533142e+11 </wgt>
<wgt id='1274'> +2.9658401e+11 </wgt>
<wgt id='1275'> +2.8818227e+11 </wgt>
<wgt id='1276'> +3.2349043e+11 </wgt>
<wgt id='1277'> +3.2945068e+11 </wgt>
<wgt id='1278'> +3.1671705e+11 </wgt>
<wgt id='1279'> +2.7398402e+11 </wgt>
<wgt id='1280'> +3.1299051e+11 </wgt>
<wgt id='1281'> +2.8384322e+11 </wgt>
<wgt id='1282'> +2.9029247e+11 </wgt>
<wgt id='1283'> +3.3790068e+11 </wgt>
<wgt id='1284'> +2.9222406e+11 </wgt>
<wgt id='1285'> +2.9114595e+11 </wgt>
<wgt id='1286'> +3.7047843e+11 </wgt>
<wgt id='1287'> +3.7503939e+11 </wgt>
<wgt id='1288'> +3.9565764e+11 </wgt>
<wgt id='1289'> +3.3715951e+11 </wgt>
<wgt id='1290'> +3.1976158e+11 </wgt>
<wgt id='1291'> +2.8537059e+11 </wgt>
<wgt id='1292'> +3.1605230e+11 </wgt>
<wgt id='1293'> +3.0492920e+11 </wgt>
<wgt id='1294'> +3.7655079e+11 </wgt>
<wgt id='1295'> +3.2098473e+11 </wgt>
<wgt id='1296'> +3.8019664e+11 </wgt>
<wgt id='1297'> +2.7646887e+11 </wgt>
<wgt id='1298'> +2.9510243e+11 </wgt>
<wgt id='1299'> +3.1069748e+11 </wgt>
<wgt id='1300'> +2.5113296e+11 </wgt>
<wgt id='1301'> +2.6950424e+11 </wgt>
<wgt id='1302'> +2.6983844e+11 </wgt>
<wgt id='1303'> +3.1567119e+11 </wgt>
<wgt id='1304'> +3.6901121e+11 </wgt>
<wgt id='1305'> +2.9387181e+11 </wgt>
<wgt id='1306'> +3.0628243e+11 </wgt>
<wgt id='1307'> +2.6746417e+11 </wgt>
<wgt id='1308'> +3.4716115e+11 </wgt>
<wgt id='1309'> +3.1874320e+11 </wgt>
<wgt id='1310'> +3.1008655e+11 </wgt>
<wgt id='1311'> +2.8567226e+11 </wgt>
<wgt id='1312'> +3.6374156e+11 </wgt>
<wgt id='1313'> +3.2996958e+11 </wgt>
<wgt id='1314'> +2.6937601e+11 </wgt>
<wgt id='1315'> +2.7752146e+11 </wgt>
<wgt id='1316'> +3.0051178e+11 </wgt>
<wgt id='1317'> +3.6194366e+11 </wgt>
<wgt id='1318'> +2.8934489e+11 </wgt>
<wgt id='1319'> +3.0595189e+11 </wgt>
<wgt id='1320'> +3.3295743e+11 </wgt>
<wgt id='1321'> +3.2272161e+11 </wgt>
<wgt id='1322'> +3.3122443e+11 </wgt>
<wgt id='1323'> +2.6112532e+11 </wgt>
<wgt id='1324'> +3.3171205e+11 </wgt>
<wgt id='1325'> +3.2170331e+11 </wgt>
<wgt id='1326'> +3.2740492e+11 </wgt>
<wgt id='1327'> +3.3950546e+11 </wgt>
<wgt id='1328'> +3.2667697e+11 </wgt>
<wgt id='1329'> +2.8761103e+11 </wgt>
<wgt id='1330'> +2.7214708e+11 </wgt>
<wgt id='1331'> +3.3504801e+11 </wgt>
<wgt id='1332'> +3.2557489e+11 </wgt>
<wgt id='1333'> +3.0538075e+11 </wgt>
<wgt id='1334'> +3.5021424e+11 </wgt>
<wgt id='1335'> +2.6906320e+11 </wgt>
<wgt id='1336'> +3.6166686e+11 </wgt>
<wgt id='1337'> +3.1540866e+11 </wgt>
<wgt id='1338'> +2.7753999e+11 </wgt>
<wgt id='1339'> +2.9195759e+11 </wgt>
<wgt id='1340'> +3.5148913e+11 </wgt>
<wgt id='1341'> +3.9686741e+11 </wgt>
<wgt id='1342'> +2.7936459e+11 </wgt>
<wgt id='1343'> +3.1509215e+11 </wgt>
<wgt id='1344'> +3.4016392e+11 </wgt>
<wgt id='1345'> +2.2048527e+11 </wgt>
<wgt id='1346'> +3.0757926e+11 </wgt>
<wgt id='1347'> +3.0961616e+11 </wgt>
<wgt id='1348'> +2.8087059e+11 </wgt>
<wgt id='1349'> +2.9270685e+11 </wgt>
<wgt id='1350'> +3.5855788e+11 </wgt>
<wgt id='1351'> +2.8635671e+11 </wgt>
<wgt id='1352'> +3.1471289e+11 </wgt>
<wgt id='1353'> +3.1799819e+11 </wgt>
<wgt id='1354'> +3.2141274e+11 </wgt>
<wgt id='1355'> +2.8432623e+11 </wgt>
<wgt id='1356'> +2.8777506e+11 </wgt>
<wgt id='1357'> +2.8858537e+11 </wgt>
<wgt id='1358'> +2.8008639e+11 </wgt>
<wgt id='1359'> +2.8192008e+11 </wgt>
<wgt id='1360'> +2.7738242e+11 </wgt>
<wgt id='1361'> +2.8339367e+11 </wgt>
<wgt id='1362'> +2.9260669e+11 </wgt>
<wgt id='1363'> +2.8149413e+11 </wgt>
<wgt id='1364'> +3.0517338e+11 </wgt>
<wgt id='1365'> +2.8067688e+11 </wgt>
<wgt id='1366'> +2.8464546e+11 </wgt>
<wgt id='1367'> +2.7674143e+11 </wgt>
<wgt id='1368'> +2.9283326e+11 </wgt>
<wgt id='1369'> +2.8691385e+11 </wgt>
<wgt id='1370'> +2.7223432e+11 </wgt>
<wgt id='1371'> +2.7563576e+11 </wgt>
<wgt id='1372'> +2.7565529e+11 </wgt>
<wgt id='1373'> +2.9571437e+11 </wgt>
<wgt id='1374'> +2.8439480e+11 </wgt>
<wgt id='1375'> +2.8679731e+11 </wgt>
<wgt id='1376'> +2.8722804e+11 </wgt>
<wgt id='1377'> +2.8239358e+11 </wgt>
<wgt id='1378'> +2.9084667e+11 </wgt>
<wgt id='1379'> +2.7982656e+11 </wgt>
<wgt id='1380'> +2.8096547e+11 </wgt>
<wgt id='1381'> +2.8829514e+11 </wgt>
<wgt id='1382'> +2.7711646e+11 </wgt>
<wgt id='1383'> +2.8065306e+11 </wgt>
<wgt id='1384'> +2.7181027e+11 </wgt>
<wgt id='1385'> +2.7961420e+11 </wgt>
<wgt id='1386'> +2.8056813e+11 </wgt>
<wgt id='1387'> +2.8751598e+11 </wgt>
<wgt id='1388'> +2.8365040e+11 </wgt>
<wgt id='1389'> +2.7633763e+11 </wgt>
<wgt id='1390'> +2.8726129e+11 </wgt>
<wgt id='1391'> +2.9467351e+11 </wgt>
<wgt id='1392'> +2.7193442e+11 </wgt>
<wgt id='1393'> +2.9005569e+11 </wgt>
<wgt id='1394'> +2.9024856e+11 </wgt>
<wgt id='1395'> +2.7210548e+11 </wgt>
<wgt id='1396'> +2.8373982e+11 </wgt>
<wgt id='1397'> +2.8186271e+11 </wgt>
<wgt id='1398'> +2.9954625e+11 </wgt>
<wgt id='1399'> +2.7861027e+11 </wgt>
<wgt id='1400'> +2.7772554e+11 </wgt>
<wgt id='1401'> +2.7751254e+11 </wgt>
<wgt id='1402'> +2.8637032e+11 </wgt>
<wgt id='1403'> +2.9931367e+11 </wgt>
<wgt id='1404'> +2.8704557e+11 </wgt>
<wgt id='1405'> +3.0194199e+11 </wgt>
<wgt id='1406'> +2.9330920e+11 </wgt>
<wgt id='1407'> +2.9713176e+11 </wgt>
<wgt id='1408'> +3.0226587e+11 </wgt>
<wgt id='1409'> +2.7650796e+11 </wgt>
<wgt id='1410'> +2.8187357e+11 </wgt>
<wgt id='1411'> +2.8338370e+11 </wgt>
<wgt id='1412'> +2.9703267e+11 </wgt>
<wgt id='1413'> +2.9399559e+11 </wgt>
<wgt id='1414'> +2.8857393e+11 </wgt>
<wgt id='1415'> +2.7517459e+11 </wgt>
<wgt id='1416'> +2.8348527e+11 </wgt>
<wgt id='1417'> +2.7589023e+11 </wgt>
<wgt id='1418'> +2.8069253e+11 </wgt>
<wgt id='1419'> +2.8529967e+11 </wgt>
<wgt id='1420'> +2.6596014e+11 </wgt>
<wgt id='1421'> +2.9648223e+11 </wgt>
<wgt id='1422'> +2.6968669e+11 </wgt>
<wgt id='1423'> +2.8411860e+11 </wgt>
<wgt id='1424'> +2.7813958e+11 </wgt>
<wgt id='1425'> +2.8165081e+11 </wgt>
<wgt id='1426'> +2.9231986e+11 </wgt>
<wgt id='1427'> +2.7790630e+11 </wgt>
<wgt id='1428'> +2.7577587e+11 </wgt>
<wgt id='1429'> +2.8311929e+11 </wgt>
<wgt id='1430'> +2.7863302e+11 </wgt>
<wgt id='1431'> +2.8986563e+11 </wgt>
<wgt id='1432'> +2.7290113e+11 </wgt>
<wgt id='1433'> +2.7367844e+11 </wgt>
<wgt id='1434'> +2.8076979e+11 </wgt>
<wgt id='1435'> +2.8927184e+11 </wgt>
<wgt id='1436'> +2.8565752e+11 </wgt>
<wgt id='1437'> +2.8318681e+11 </wgt>
<wgt id='1438'> +2.8242407e+11 </wgt>
<wgt id='1439'> +2.9386519e+11 </wgt>
<wgt id='1440'> +2.8373220e+11 </wgt>
<wgt id='1441'> +2.8065088e+11 </wgt>
<wgt id='1442'> +2.8391449e+11 </wgt>
<wgt id='1443'> +2.7398984e+11 </wgt>
<wgt id='1444'> +2.9676017e+11 </wgt>
<wgt id='1445'> +2.7706761e+11 </wgt>
<wgt id='1446'> +3.0220492e+11 </wgt>
<wgt id='1447'> +2.9325188e+11 </wgt>
<wgt id='1448'> +2.8854473e+11 </wgt>
<wgt id='1449'> +2.8396615e+11 </wgt>
<wgt id='1450'> +2.7907964e+11 </wgt>
<wgt id='1451'> +2.7601689e+11 </wgt>
<wgt id='1452'> +2.9050880e+11 </wgt>
<wgt id='1453'> +2.9754050e+11 </wgt>
<wgt id='1454'> +2.7377899e+11 </wgt>
<wgt id='1455'> +2.8437820e+11 </wgt>
<wgt id='1456'> +2.7976618e+11 </wgt>
<wgt id='1457'> +2.8777903e+11 </wgt>
<wgt id='1458'> +2.9631414e+11 </wgt>
<wgt id='1459'> +3.1345484e+11 </wgt>
<wgt id='1460'> +3.0724391e+11 </wgt>
<wgt id='1461'> +3.8104074e+11 </wgt>
<wgt id='1462'> +3.1540411e+11 </wgt>
<wgt id='1463'> +3.1561363e+11 </wgt>
<wgt id='1464'> +3.1513536e+11 </wgt>
<wgt id='1465'> +3.1548273e+11 </wgt>
<wgt id='1466'> +3.1533229e+11 </wgt>
<wgt id='1467'> +3.1547887e+11 </wgt>
<wgt id='1468'> +3.1528143e+11 </wgt>
<wgt id='1469'> +3.1495274e+11 </wgt>
<wgt id='1470'> +3.1577062e+11 </wgt>
<wgt id='1471'> +3.1585274e+11 </wgt>
<wgt id='1472'> +3.1494199e+11 </wgt>
<wgt id='1473'> +3.1672095e+11 </wgt>
<wgt id='1474'> +3.1413914e+11 </wgt>
<wgt id='1475'> +3.1661082e+11 </wgt>
<wgt id='1476'> +3.1454906e+11 </wgt>
<wgt id='1477'> +3.1483664e+11 </wgt>
<wgt id='1478'> +3.1673031e+11 </wgt>
<wgt id='1479'> +3.1520503e+11 </wgt>
<wgt id='1480'> +3.1555216e+11 </wgt>
<wgt id='1481'> +3.1450407e+11 </wgt>
<wgt id='1482'> +3.1662729e+11 </wgt>
<wgt id='1483'> +3.1540036e+11 </wgt>
<wgt id='1484'> +3.1542078e+11 </wgt>
<wgt id='1485'> +3.1557265e+11 </wgt>
<wgt id='1486'> +3.1499717e+11 </wgt>
<wgt id='1487'> +3.1562962e+11 </wgt>
<wgt id='1488'> +3.1511246e+11 </wgt>
<wgt id='1489'> +3.1498502e+11 </wgt>
<wgt id='1490'> +3.1654120e+11 </wgt>
<wgt id='1491'> +3.2113505e+11 </wgt>
<wgt id='1492'> +3.1221271e+11 </wgt>
<wgt id='1493'> +3.1133002e+11 </wgt>
<wgt id='1494'> +3.2817542e+11 </wgt>
<wgt id='1495'> +3.1417704e+11 </wgt>
<wgt id='1496'> +3.1672446e+11 </wgt>
<wgt id='1497'> +3.1570394e+11 </wgt>
<wgt id='1498'> +3.1499648e+11 </wgt>
<wgt id='1499'> +3.1816429e+11 </wgt>
<wgt id='1500'> +3.1390247e+11 </wgt>
<wgt id='1501'> +3.1531530e+11 </wgt>
<wgt id='1502'> +3.1568468e+11 </wgt>
<wgt id='1503'> +3.0768476e+11 </wgt>
<wgt id='1504'> +3.2450688e+11 </wgt>
<wgt id='1505'> +3.1540139e+11 </wgt>
<wgt id='1506'> +3.1541822e+11 </wgt>
<wgt id='1507'> +3.2299328e+11 </wgt>
<wgt id='1508'> +3.0091828e+11 </wgt>
<wgt id='1509'> +3.1665341e+11 </wgt>
<wgt id='1510'> +3.0998093e+11 </wgt>
<wgt id='1511'> +3.1643366e+11 </wgt>
<wgt id='1512'> +3.1561627e+11 </wgt>
<wgt id='1513'> +3.1489304e+11 </wgt>
<wgt id='1514'> +3.1597950e+11 </wgt>
<wgt id='1515'> +3.2320956e+11 </wgt>
<wgt id='1516'> +3.1229134e+11 </wgt>
<wgt id='1517'> +3.1434560e+11 </wgt>
<wgt id='1518'> +3.1741014e+11 </wgt>
<wgt id='1519'> +3.1271931e+11 </wgt>
<wgt id='1520'> +3.1729767e+11 </wgt>
<wgt id='1521'> +3.1322952e+11 </wgt>
<wgt id='1522'> +3.1658159e+11 </wgt>
<wgt id='1523'> +3.1714779e+11 </wgt>
<wgt id='1524'> +3.1717073e+11 </wgt>
<wgt id='1525'> +3.1555148e+11 </wgt>
<wgt id='1526'> +3.1795297e+11 </wgt>
<wgt id='1527'> +3.1540411e+11 </wgt>
<wgt id='1528'> +3.1153854e+11 </wgt>
<wgt id='1529'> +3.1945302e+11 </wgt>
<wgt id='1530'> +3.0295043e+11 </wgt>
<wgt id='1531'> +3.2948833e+11 </wgt>
<wgt id='1532'> +3.3409436e+11 </wgt>
<wgt id='1533'> +3.2305602e+11 </wgt>
<wgt id='1534'> +3.2660013e+11 </wgt>
<wgt id='1535'> +3.3399879e+11 </wgt>
<wgt id='1536'> +3.2257835e+11 </wgt>
<wgt id='1537'> +3.3639170e+11 </wgt>
<wgt id='1538'> +3.2408023e+11 </wgt>
<wgt id='1539'> +3.3546271e+11 </wgt>
<wgt id='1540'> +3.3460109e+11 </wgt>
<wgt id='1541'> +3.3288922e+11 </wgt>
<wgt id='1542'> +3.3106257e+11 </wgt>
<wgt id='1543'> +3.3354031e+11 </wgt>
<wgt id='1544'> +3.2693979e+11 </wgt>
<wgt id='1545'> +3.2770928e+11 </wgt>
<wgt id='1546'> +3.2611017e+11 </wgt>
<wgt id='1547'> +3.3162105e+11 </wgt>
<wgt id='1548'> +3.2956204e+11 </wgt>
<wgt id='1549'> +3.2597007e+11 </wgt>
<wgt id='1550'> +3.3334387e+11 </wgt>
<wgt id='1551'> +3.3049682e+11 </wgt>
<wgt id='1552'> +3.3045270e+11 </wgt>
<wgt id='1553'> +3.4133561e+11 </wgt>
<wgt id='1554'> +3.3067520e+11 </wgt>
<wgt id='1555'> +3.3012851e+11 </wgt>
<wgt id='1556'> +3.3197628e+11 </wgt>
<wgt id='1557'> +3.2970074e+11 </wgt>
<wgt id='1558'> +3.2945401e+11 </wgt>
<wgt id='1559'> +3.2790870e+11 </wgt>
<wgt id='1560'> +3.3002252e+11 </wgt>
<wgt id='1561'> +3.2874748e+11 </wgt>
<wgt id='1562'> +3.2524929e+11 </wgt>
<wgt id='1563'> +3.3006402e+11 </wgt>
<wgt id='1564'> +3.2903169e+11 </wgt>
<wgt id='1565'> +3.3517890e+11 </wgt>
<wgt id='1566'> +3.2940107e+11 </wgt>
<wgt id='1567'> +3.2632745e+11 </wgt>
<wgt id='1568'> +3.2923487e+11 </wgt>
<wgt id='1569'> +3.2888729e+11 </wgt>
<wgt id='1570'> +3.3732492e+11 </wgt>
<wgt id='1571'> +3.2885033e+11 </wgt>
<wgt id='1572'> +3.2847787e+11 </wgt>
<wgt id='1573'> +3.3750372e+11 </wgt>
<wgt id='1574'> +2.3532782e+11 </wgt>
<wgt id='1575'> +2.3538567e+11 </wgt>
<wgt id='1576'> +2.3525802e+11 </wgt>
<wgt id='1577'> +2.3534489e+11 </wgt>
<wgt id='1578'> +2.3587000e+11 </wgt>
<wgt id='1579'> +2.3601744e+11 </wgt>
<wgt id='1580'> +2.3577759e+11 </wgt>
<wgt id='1581'> +2.3508847e+11 </wgt>
<wgt id='1582'> +2.3487188e+11 </wgt>
<wgt id='1583'> +2.3481534e+11 </wgt>
<wgt id='1584'> +2.3587960e+11 </wgt>
<wgt id='1585'> +2.3571765e+11 </wgt>
<wgt id='1586'> +2.3484386e+11 </wgt>
<wgt id='1587'> +2.3486391e+11 </wgt>
<wgt id='1588'> +2.3450001e+11 </wgt>
<wgt id='1589'> +2.3489144e+11 </wgt>
<wgt id='1590'> +2.3518210e+11 </wgt>
<wgt id='1591'> +2.3540545e+11 </wgt>
<wgt id='1592'> +2.3447033e+11 </wgt>
<wgt id='1593'> +2.3401886e+11 </wgt>
<wgt id='1594'> +2.3666964e+11 </wgt>
<wgt id='1595'> +2.3254513e+11 </wgt>
<wgt id='1596'> +2.4020540e+11 </wgt>
<wgt id='1597'> +2.3710379e+11 </wgt>
<wgt id='1598'> +2.3706977e+11 </wgt>
<wgt id='1599'> +2.3209870e+11 </wgt>
<wgt id='1600'> +2.4061782e+11 </wgt>
<wgt id='1601'> +2.3744798e+11 </wgt>
<wgt id='1602'> +2.3560328e+11 </wgt>
<wgt id='1603'> +2.5320155e+11 </wgt>
<wgt id='1604'> +2.3508826e+11 </wgt>
</rwgt>
</event>
<event>
 9      1 +2.8343000e+11 1.40000000e+03 7.81738600e-03 7.88881100e-02
       21 -1    0    0  504  503 +0.0000000000e+00 +0.0000000000e+00 +6.0412138745e+02 6.0412138745e+02 0.0000000000e+00 0.0000e+00 -1.0000e+00
       21 -1    0    0  503  504 -0.0000000000e+00 -0.0000000000e+00 -8.1109562128e+02 8.1109562128e+02 0.0000000000e+00 0.0000e+00 -1.0000e+00
       45  2    1    2    0    0 +0.0000000000e+00 -1.1368683772e-13 -2.0697423383e+02 1.4152170087e+03 1.4000003030e+03 0.0000e+00 0.0000e+00
       25  2    3    3    0    0 +4.5820677960e+02 +5.0967212222e+02 -1.1087437990e+01 6.9675145551e+02 1.2498213650e+02 0.0000e+00 0.0000e+00
       35  2    3    3    0    0 -4.5820677960e+02 -5.0967212222e+02 -1.9588679584e+02 7.1846555322e+02 9.0011051237e+01 0.0000e+00 0.0000e+00
        5  1    5    5  501    0 -4.0295132737e+02 -4.6115567128e+02 -2.0120580983e+02 6.4462071102e+02 4.2140000000e+00 0.0000e+00 -1.0000e+00
       -5  1    5    5    0  501 -5.5255452233e+01 -4.8516450939e+01 +5.3190139868e+00 7.3844842196e+01 4.2140000000e+00 0.0000e+00 -1.0000e+00
        5  1    4    4  502    0 +3.9286860166e+02 +4.1680687082e+02 -5.3910508103e+01 5.7532408816e+02 4.2140000000e+00 0.0000e+00 -1.0000e+00
       -5  1    4    4    0  502 +6.5338177937e+01 +9.2865251399e+01 +4.2823070112e+01 1.2142736736e+02 4.2140000000e+00 0.0000e+00 -1.0000e+00
<mgrwt>
<rscale>  0 0.14000003E+04</rscale>
<asrwt>0</asrwt>
<pdfrwt beam="1">  1       21 0.92941752E-01 0.14000003E+04</pdfrwt>
<pdfrwt beam="2">  1       21 0.12478394E+00 0.14000003E+04</pdfrwt>
<totfact> 0.35202515E+02</totfact>
</mgrwt>
<rwgt>
<wgt id='1001'> +2.8343000e+11 </wgt>
<wgt id='1002'> +2.8432666e+11 </wgt>
<wgt id='1003'> +2.8432626e+11 </wgt>
<wgt id='1004'> +3.1884305e+11 </wgt>
<wgt id='1005'> +2.8343000e+11 </wgt>
<wgt id='1006'> +2.8343000e+11 </wgt>
<wgt id='1007'> +2.8432666e+11 </wgt>
<wgt id='1008'> +2.8432626e+11 </wgt>
<wgt id='1009'> +3.1884305e+11 </wgt>
<wgt id='1010'> +2.8343000e+11 </wgt>
<wgt id='1011'> +2.8343000e+11 </wgt>
<wgt id='1012'> +2.8432666e+11 </wgt>
<wgt id='1013'> +2.8432626e+11 </wgt>
<wgt id='1014'> +3.1884305e+11 </wgt>
<wgt id='1015'> +2.8343000e+11 </wgt>
<wgt id='1016'> +2.5462342e+11 </wgt>
<wgt id='1017'> +2.5538328e+11 </wgt>
<wgt id='1018'> +2.5538294e+11 </wgt>
<wgt id='1019'> +2.8432626e+11 </wgt>
<wgt id='1020'> +2.5462342e+11 </wgt>
<wgt id='1021'> +2.5462342e+11 </wgt>
<wgt id='1022'> +2.5538328e+11 </wgt>
<wgt id='1023'> +2.5538294e+11 </wgt>
<wgt id='1024'> +2.8432626e+11 </wgt>
<wgt id='1025'> +2.5462342e+11 </wgt>
<wgt id='1026'> +2.5462342e+11 </wgt>
<wgt id='1027'> +2.5538328e+11 </wgt>
<wgt id='1028'> +2.5538294e+11 </wgt>
<wgt id='1029'> +2.8432626e+11 </wgt>
<wgt id='1030'> +2.5462342e+11 </wgt>
<wgt id='1031'> +3.1776743e+11 </wgt>
<wgt id='1032'> +3.1884352e+11 </wgt>
<wgt id='1033'> +3.1884305e+11 </wgt>
<wgt id='1034'> +3.6034361e+11 </wgt>
<wgt id='1035'> +3.1776743e+11 </wgt>
<wgt id='1036'> +3.1776743e+11 </wgt>
<wgt id='1037'> +3.1884352e+11 </wgt>
<wgt id='1038'> +3.1884305e+11 </wgt>
<wgt id='1039'> +3.6034361e+11 </wgt>
<wgt id='1040'> +3.1776743e+11 </wgt>
<wgt id='1041'> +3.1776743e+11 </wgt>
<wgt id='1042'> +3.1884352e+11 </wgt>
<wgt id='1043'> +3.1884305e+11 </wgt>
<wgt id='1044'> +3.6034361e+11 </wgt>
<wgt id='1045'> +3.1776743e+11 </wgt>
<wgt id='1046'> +2.8343000e+11 </wgt>
<wgt id='1047'> +2.8343000e+11 </wgt>
<wgt id='1048'> +2.8343000e+11 </wgt>
<wgt id='1049'> +2.8232912e+11 </wgt>
<wgt id='1050'> +2.8308127e+11 </wgt>
<wgt id='1051'> +2.8367854e+11 </wgt>
<wgt id='1052'> +2.8423728e+11 </wgt>
<wgt id='1053'> +2.8187272e+11 </wgt>
<wgt id='1054'> +2.8386249e+11 </wgt>
<wgt id='1055'> +2.8225264e+11 </wgt>
<wgt id='1056'> +2.8186105e+11 </wgt>
<wgt id='1057'> +2.8414752e+11 </wgt>
<wgt id='1058'> +2.8303192e+11 </wgt>
<wgt id='1059'> +2.8539628e+11 </wgt>
<wgt id='1060'> +2.8365849e+11 </wgt>
<wgt id='1061'> +2.8416587e+11 </wgt>
<wgt id='1062'> +2.8403711e+11 </wgt>
<wgt id='1063'> +2.8374632e+11 </wgt>
<wgt id='1064'> +2.8461780e+11 </wgt>
<wgt id='1065'> +2.8484520e+11 </wgt>
<wgt id='1066'> +2.8187842e+11 </wgt>
<wgt id='1067'> +2.7990359e+11 </wgt>
<wgt id='1068'> +2.8373981e+11 </wgt>
<wgt id='1069'> +2.8272737e+11 </wgt>
<wgt id='1070'> +2.8350608e+11 </wgt>
<wgt id='1071'> +2.8470658e+11 </wgt>
<wgt id='1072'> +2.8119281e+11 </wgt>
<wgt id='1073'> +2.8406342e+11 </wgt>
<wgt id='1074'> +2.8314155e+11 </wgt>
<wgt id='1075'> +2.8443574e+11 </wgt>
<wgt id='1076'> +2.8298545e+11 </wgt>
<wgt id='1077'> +2.8282834e+11 </wgt>
<wgt id='1078'> +2.8410585e+11 </wgt>
<wgt id='1079'> +2.8185071e+11 </wgt>
<wgt id='1080'> +2.8283542e+11 </wgt>
<wgt id='1081'> +2.8299762e+11 </wgt>
<wgt id='1082'> +2.8206305e+11 </wgt>
<wgt id='1083'> +2.8397279e+11 </wgt>
<wgt id='1084'> +2.8406231e+11 </wgt>
<wgt id='1085'> +2.8284386e+11 </wgt>
<wgt id='1086'> +2.8285278e+11 </wgt>
<wgt id='1087'> +2.8308507e+11 </wgt>
<wgt id='1088'> +2.8294672e+11 </wgt>
<wgt id='1089'> +2.8279473e+11 </wgt>
<wgt id='1090'> +2.8414129e+11 </wgt>
<wgt id='1091'> +2.8350774e+11 </wgt>
<wgt id='1092'> +2.8367636e+11 </wgt>
<wgt id='1093'> +2.8331507e+11 </wgt>
<wgt id='1094'> +2.8287866e+11 </wgt>
<wgt id='1095'> +2.8355302e+11 </wgt>
<wgt id='1096'> +2.8336124e+11 </wgt>
<wgt id='1097'> +2.8302603e+11 </wgt>
<wgt id='1098'> +2.8307793e+11 </wgt>
<wgt id='1099'> +2.8320836e+11 </wgt>
<wgt id='1100'> +2.8401387e+11 </wgt>
<wgt id='1101'> +2.8340472e+11 </wgt>
<wgt id='1102'> +2.8327910e+11 </wgt>
<wgt id='1103'> +2.8310776e+11 </wgt>
<wgt id='1104'> +2.8310687e+11 </wgt>
<wgt id='1105'> +2.8354413e+11 </wgt>
<wgt id='1106'> +2.8375146e+11 </wgt>
<wgt id='1107'> +2.8332793e+11 </wgt>
<wgt id='1108'> +2.8334010e+11 </wgt>
<wgt id='1109'> +2.8322740e+11 </wgt>
<wgt id='1110'> +2.8375860e+11 </wgt>
<wgt id='1111'> +2.8355999e+11 </wgt>
<wgt id='1112'> +2.8339882e+11 </wgt>
<wgt id='1113'> +2.8374166e+11 </wgt>
<wgt id='1114'> +2.8311354e+11 </wgt>
<wgt id='1115'> +2.8324139e+11 </wgt>
<wgt id='1116'> +2.8375028e+11 </wgt>
<wgt id='1117'> +2.8336896e+11 </wgt>
<wgt id='1118'> +2.8352983e+11 </wgt>
<wgt id='1119'> +2.8324949e+11 </wgt>
<wgt id='1120'> +2.8327707e+11 </wgt>
<wgt id='1121'> +2.8348811e+11 </wgt>
<wgt id='1122'> +2.8322729e+11 </wgt>
<wgt id='1123'> +2.8337616e+11 </wgt>
<wgt id='1124'> +2.8335378e+11 </wgt>
<wgt id='1125'> +2.8358813e+11 </wgt>
<wgt id='1126'> +2.8353628e+11 </wgt>
<wgt id='1127'> +2.8332272e+11 </wgt>
<wgt id='1128'> +2.8346774e+11 </wgt>
<wgt id='1129'> +2.8338053e+11 </wgt>
<wgt id='1130'> +2.8345983e+11 </wgt>
<wgt id='1131'> +2.8370536e+11 </wgt>
<wgt id='1132'> +2.8334990e+11 </wgt>
<wgt id='1133'> +2.8350724e+11 </wgt>
<wgt id='1134'> +2.8340880e+11 </wgt>
<wgt id='1135'> +2.8347141e+11 </wgt>
<wgt id='1136'> +2.8339210e+11 </wgt>
<wgt id='1137'> +2.8328175e+11 </wgt>
<wgt id='1138'> +2.8354503e+11 </wgt>
<wgt id='1139'> +2.8347000e+11 </wgt>
<wgt id='1140'> +2.8363896e+11 </wgt>
<wgt id='1141'> +2.8329753e+11 </wgt>
<wgt id='1142'> +2.8350302e+11 </wgt>
<wgt id='1143'> +2.8359831e+11 </wgt>
<wgt id='1144'> +2.8334336e+11 </wgt>
<wgt id='1145'> +2.8355601e+11 </wgt>
<wgt id='1146'> +2.8341388e+11 </wgt>
<wgt id='1147'> +2.8347866e+11 </wgt>
<wgt id='1148'> +2.8343000e+11 </wgt>
<wgt id='1149'> +2.8343000e+11 </wgt>
<wgt id='1150'> +2.9205333e+11 </wgt>
<wgt id='1151'> +2.8085456e+11 </wgt>
<wgt id='1152'> +2.8442715e+11 </wgt>
<wgt id='1153'> +2.8754084e+11 </wgt>
<wgt id='1154'> +2.8703632e+11 </wgt>
<wgt id='1155'> +2.8872767e+11 </wgt>
<wgt id='1156'> +2.7665004e+11 </wgt>
<wgt id='1157'> +2.7635611e+11 </wgt>
<wgt id='1158'> +2.7756141e+11 </wgt>
<wgt id='1159'> +2.9661822e+11 </wgt>
<wgt id='1160'> +2.8186334e+11 </wgt>
<wgt id='1161'> +2.8551934e+11 </wgt>
<wgt id='1162'> +2.7728638e+11 </wgt>
<wgt id='1163'> +2.8673841e+11 </wgt>
<wgt id='1164'> +2.6787768e+11 </wgt>
<wgt id='1165'> +2.7905752e+11 </wgt>
<wgt id='1166'> +2.8480064e+11 </wgt>
<wgt id='1167'> +2.7970117e+11 </wgt>
<wgt id='1168'> +2.7636024e+11 </wgt>
<wgt id='1169'> +2.7589967e+11 </wgt>
<wgt id='1170'> +2.7684958e+11 </wgt>
<wgt id='1171'> +2.7336731e+11 </wgt>
<wgt id='1172'> +2.7732286e+11 </wgt>
<wgt id='1173'> +2.8770867e+11 </wgt>
<wgt id='1174'> +2.7938755e+11 </wgt>
<wgt id='1175'> +2.7549823e+11 </wgt>
<wgt id='1176'> +2.8636132e+11 </wgt>
<wgt id='1177'> +2.7907688e+11 </wgt>
<wgt id='1178'> +2.8311254e+11 </wgt>
<wgt id='1179'> +2.8037066e+11 </wgt>
<wgt id='1180'> +2.8482189e+11 </wgt>
<wgt id='1181'> +2.7757432e+11 </wgt>
<wgt id='1182'> +2.8142692e+11 </wgt>
<wgt id='1183'> +2.9524877e+11 </wgt>
<wgt id='1184'> +2.7756946e+11 </wgt>
<wgt id='1185'> +2.8185647e+11 </wgt>
<wgt id='1186'> +2.7219230e+11 </wgt>
<wgt id='1187'> +2.8554075e+11 </wgt>
<wgt id='1188'> +2.7858825e+11 </wgt>
<wgt id='1189'> +2.8525721e+11 </wgt>
<wgt id='1190'> +2.8394452e+11 </wgt>
<wgt id='1191'> +2.9478159e+11 </wgt>
<wgt id='1192'> +2.9157991e+11 </wgt>
<wgt id='1193'> +2.9502161e+11 </wgt>
<wgt id='1194'> +2.8430821e+11 </wgt>
<wgt id='1195'> +2.8372273e+11 </wgt>
<wgt id='1196'> +2.9228254e+11 </wgt>
<wgt id='1197'> +2.9378685e+11 </wgt>
<wgt id='1198'> +2.7612321e+11 </wgt>
<wgt id='1199'> +2.8265950e+11 </wgt>
<wgt id='1200'> +2.8267119e+11 </wgt>
<wgt id='1201'> +2.7935190e+11 </wgt>
<wgt id='1202'> +2.8848752e+11 </wgt>
<wgt id='1203'> +2.7784790e+11 </wgt>
<wgt id='1204'> +2.8786094e+11 </wgt>
<wgt id='1205'> +2.8491199e+11 </wgt>
<wgt id='1206'> +2.7672814e+11 </wgt>
<wgt id='1207'> +2.9292776e+11 </wgt>
<wgt id='1208'> +2.7259548e+11 </wgt>
<wgt id='1209'> +2.7901722e+11 </wgt>
<wgt id='1210'> +2.8067195e+11 </wgt>
<wgt id='1211'> +2.8575850e+11 </wgt>
<wgt id='1212'> +2.8358167e+11 </wgt>
<wgt id='1213'> +2.9308960e+11 </wgt>
<wgt id='1214'> +2.7577416e+11 </wgt>
<wgt id='1215'> +2.9151391e+11 </wgt>
<wgt id='1216'> +2.8584018e+11 </wgt>
<wgt id='1217'> +2.7596948e+11 </wgt>
<wgt id='1218'> +2.8475178e+11 </wgt>
<wgt id='1219'> +2.9432295e+11 </wgt>
<wgt id='1220'> +2.7723090e+11 </wgt>
<wgt id='1221'> +2.7513520e+11 </wgt>
<wgt id='1222'> +2.8020251e+11 </wgt>
<wgt id='1223'> +2.7261143e+11 </wgt>
<wgt id='1224'> +2.8348261e+11 </wgt>
<wgt id='1225'> +2.8817412e+11 </wgt>
<wgt id='1226'> +2.9032810e+11 </wgt>
<wgt id='1227'> +2.7359972e+11 </wgt>
<wgt id='1228'> +2.8142422e+11 </wgt>
<wgt id='1229'> +3.0275093e+11 </wgt>
<wgt id='1230'> +2.9382536e+11 </wgt>
<wgt id='1231'> +2.7905752e+11 </wgt>
<wgt id='1232'> +2.8892441e+11 </wgt>
<wgt id='1233'> +2.7796952e+11 </wgt>
<wgt id='1234'> +2.7634752e+11 </wgt>
<wgt id='1235'> +3.0269657e+11 </wgt>
<wgt id='1236'> +2.7660478e+11 </wgt>
<wgt id='1237'> +2.8968990e+11 </wgt>
<wgt id='1238'> +2.8910950e+11 </wgt>
<wgt id='1239'> +2.9153295e+11 </wgt>
<wgt id='1240'> +2.8499054e+11 </wgt>
<wgt id='1241'> +2.8217073e+11 </wgt>
<wgt id='1242'> +2.8062951e+11 </wgt>
<wgt id='1243'> +2.8869523e+11 </wgt>
<wgt id='1244'> +2.8144551e+11 </wgt>
<wgt id='1245'> +2.8162959e+11 </wgt>
<wgt id='1246'> +3.0702948e+11 </wgt>
<wgt id='1247'> +2.8347856e+11 </wgt>
<wgt id='1248'> +2.7513612e+11 </wgt>
<wgt id='1249'> +2.7745885e+11 </wgt>
<wgt id='1250'> +2.9215300e+11 </wgt>
<wgt id='1251'> +2.9858554e+11 </wgt>
<wgt id='1252'> +2.8696918e+11 </wgt>
<wgt id='1253'> +2.8523169e+11 </wgt>
<wgt id='1254'> +2.8838864e+11 </wgt>
<wgt id='1255'> +2.9799277e+11 </wgt>
<wgt id='1256'> +2.9565788e+11 </wgt>
<wgt id='1257'> +2.8638184e+11 </wgt>
<wgt id='1258'> +2.9955203e+11 </wgt>
<wgt id='1259'> +2.9480723e+11 </wgt>
<wgt id='1260'> +3.2525811e+11 </wgt>
<wgt id='1261'> +3.1351883e+11 </wgt>
<wgt id='1262'> +2.8957168e+11 </wgt>
<wgt id='1263'> +2.9661535e+11 </wgt>
<wgt id='1264'> +2.9851487e+11 </wgt>
<wgt id='1265'> +2.9823247e+11 </wgt>
<wgt id='1266'> +2.9455723e+11 </wgt>
<wgt id='1267'> +3.1681802e+11 </wgt>
<wgt id='1268'> +2.9370141e+11 </wgt>
<wgt id='1269'> +2.8694193e+11 </wgt>
<wgt id='1270'> +2.9181695e+11 </wgt>
<wgt id='1271'> +2.7845418e+11 </wgt>
<wgt id='1272'> +2.9306673e+11 </wgt>
<wgt id='1273'> +2.9154416e+11 </wgt>
<wgt id='1274'> +2.8727117e+11 </wgt>
<wgt id='1275'> +2.9804968e+11 </wgt>
<wgt id='1276'> +2.9554343e+11 </wgt>
<wgt id='1277'> +2.9089666e+11 </wgt>
<wgt id='1278'> +2.8719130e+11 </wgt>
<wgt id='1279'> +2.8087887e+11 </wgt>
<wgt id='1280'> +2.9305674e+11 </wgt>
<wgt id='1281'> +2.8549577e+11 </wgt>
<wgt id='1282'> +2.9629988e+11 </wgt>
<wgt id='1283'> +2.9650061e+11 </wgt>
<wgt id='1284'> +3.1427566e+11 </wgt>
<wgt id='1285'> +3.0794590e+11 </wgt>
<wgt id='1286'> +3.2845659e+11 </wgt>
<wgt id='1287'> +3.0307067e+11 </wgt>
<wgt id='1288'> +3.2373012e+11 </wgt>
<wgt id='1289'> +3.1279073e+11 </wgt>
<wgt id='1290'> +3.1120253e+11 </wgt>
<wgt id='1291'> +2.7764789e+11 </wgt>
<wgt id='1292'> +2.9741815e+11 </wgt>
<wgt id='1293'> +3.0010062e+11 </wgt>
<wgt id='1294'> +3.1443601e+11 </wgt>
<wgt id='1295'> +2.9884374e+11 </wgt>
<wgt id='1296'> +3.1565830e+11 </wgt>
<wgt id='1297'> +2.9508536e+11 </wgt>
<wgt id='1298'> +2.8747168e+11 </wgt>
<wgt id='1299'> +2.9859130e+11 </wgt>
<wgt id='1300'> +2.8786399e+11 </wgt>
<wgt id='1301'> +2.8047703e+11 </wgt>
<wgt id='1302'> +2.7622407e+11 </wgt>
<wgt id='1303'> +2.9832178e+11 </wgt>
<wgt id='1304'> +3.0662673e+11 </wgt>
<wgt id='1305'> +2.9809863e+11 </wgt>
<wgt id='1306'> +3.0498087e+11 </wgt>
<wgt id='1307'> +3.0274652e+11 </wgt>
<wgt id='1308'> +3.2529536e+11 </wgt>
<wgt id='1309'> +2.9571990e+11 </wgt>
<wgt id='1310'> +3.0194528e+11 </wgt>
<wgt id='1311'> +3.0729953e+11 </wgt>
<wgt id='1312'> +2.9930196e+11 </wgt>
<wgt id='1313'> +2.9688907e+11 </wgt>
<wgt id='1314'> +3.0349683e+11 </wgt>
<wgt id='1315'> +2.8479066e+11 </wgt>
<wgt id='1316'> +2.9837844e+11 </wgt>
<wgt id='1317'> +3.0139629e+11 </wgt>
<wgt id='1318'> +2.8655548e+11 </wgt>
<wgt id='1319'> +3.0680626e+11 </wgt>
<wgt id='1320'> +3.0915693e+11 </wgt>
<wgt id='1321'> +2.9366495e+11 </wgt>
<wgt id='1322'> +2.9769989e+11 </wgt>
<wgt id='1323'> +2.9803105e+11 </wgt>
<wgt id='1324'> +3.0118457e+11 </wgt>
<wgt id='1325'> +3.1072867e+11 </wgt>
<wgt id='1326'> +3.0292375e+11 </wgt>
<wgt id='1327'> +2.9413512e+11 </wgt>
<wgt id='1328'> +3.0194007e+11 </wgt>
<wgt id='1329'> +2.9751598e+11 </wgt>
<wgt id='1330'> +2.9022853e+11 </wgt>
<wgt id='1331'> +3.1912470e+11 </wgt>
<wgt id='1332'> +2.8617220e+11 </wgt>
<wgt id='1333'> +3.0042994e+11 </wgt>
<wgt id='1334'> +3.1367714e+11 </wgt>
<wgt id='1335'> +2.9231221e+11 </wgt>
<wgt id='1336'> +3.0260697e+11 </wgt>
<wgt id='1337'> +3.0823670e+11 </wgt>
<wgt id='1338'> +2.8949132e+11 </wgt>
<wgt id='1339'> +3.1988976e+11 </wgt>
<wgt id='1340'> +3.0150588e+11 </wgt>
<wgt id='1341'> +3.0519474e+11 </wgt>
<wgt id='1342'> +3.1478668e+11 </wgt>
<wgt id='1343'> +3.0990085e+11 </wgt>
<wgt id='1344'> +3.0382536e+11 </wgt>
<wgt id='1345'> +2.7912070e+11 </wgt>
<wgt id='1346'> +2.9944058e+11 </wgt>
<wgt id='1347'> +2.8672574e+11 </wgt>
<wgt id='1348'> +2.8772642e+11 </wgt>
<wgt id='1349'> +2.8933340e+11 </wgt>
<wgt id='1350'> +3.0045335e+11 </wgt>
<wgt id='1351'> +2.9627158e+11 </wgt>
<wgt id='1352'> +3.0035368e+11 </wgt>
<wgt id='1353'> +2.9703022e+11 </wgt>
<wgt id='1354'> +3.0672655e+11 </wgt>
<wgt id='1355'> +2.7575393e+11 </wgt>
<wgt id='1356'> +2.7850391e+11 </wgt>
<wgt id='1357'> +2.7658378e+11 </wgt>
<wgt id='1358'> +2.7320877e+11 </wgt>
<wgt id='1359'> +2.7647107e+11 </wgt>
<wgt id='1360'> +2.6907331e+11 </wgt>
<wgt id='1361'> +2.7573509e+11 </wgt>
<wgt id='1362'> +2.7788079e+11 </wgt>
<wgt id='1363'> +2.6976677e+11 </wgt>
<wgt id='1364'> +2.8189618e+11 </wgt>
<wgt id='1365'> +2.7343125e+11 </wgt>
<wgt id='1366'> +2.7567277e+11 </wgt>
<wgt id='1367'> +2.7658468e+11 </wgt>
<wgt id='1368'> +2.7581247e+11 </wgt>
<wgt id='1369'> +2.7989830e+11 </wgt>
<wgt id='1370'> +2.7388753e+11 </wgt>
<wgt id='1371'> +2.7363349e+11 </wgt>
<wgt id='1372'> +2.8016668e+11 </wgt>
<wgt id='1373'> +2.7936394e+11 </wgt>
<wgt id='1374'> +2.6765090e+11 </wgt>
<wgt id='1375'> +2.7476436e+11 </wgt>
<wgt id='1376'> +2.7655361e+11 </wgt>
<wgt id='1377'> +2.7574850e+11 </wgt>
<wgt id='1378'> +2.7172597e+11 </wgt>
<wgt id='1379'> +2.7422148e+11 </wgt>
<wgt id='1380'> +2.7410820e+11 </wgt>
<wgt id='1381'> +2.8105530e+11 </wgt>
<wgt id='1382'> +2.7535694e+11 </wgt>
<wgt id='1383'> +2.7559915e+11 </wgt>
<wgt id='1384'> +2.7403257e+11 </wgt>
<wgt id='1385'> +2.7415996e+11 </wgt>
<wgt id='1386'> +2.7755441e+11 </wgt>
<wgt id='1387'> +2.7471346e+11 </wgt>
<wgt id='1388'> +2.7197650e+11 </wgt>
<wgt id='1389'> +2.7412822e+11 </wgt>
<wgt id='1390'> +2.7485828e+11 </wgt>
<wgt id='1391'> +2.7349544e+11 </wgt>
<wgt id='1392'> +2.7358251e+11 </wgt>
<wgt id='1393'> +2.7385828e+11 </wgt>
<wgt id='1394'> +2.7349212e+11 </wgt>
<wgt id='1395'> +2.7146750e+11 </wgt>
<wgt id='1396'> +2.7676077e+11 </wgt>
<wgt id='1397'> +2.7638429e+11 </wgt>
<wgt id='1398'> +2.7643322e+11 </wgt>
<wgt id='1399'> +2.7146590e+11 </wgt>
<wgt id='1400'> +2.7272910e+11 </wgt>
<wgt id='1401'> +2.7438561e+11 </wgt>
<wgt id='1402'> +2.7898295e+11 </wgt>
<wgt id='1403'> +2.7903556e+11 </wgt>
<wgt id='1404'> +2.7377871e+11 </wgt>
<wgt id='1405'> +2.8187325e+11 </wgt>
<wgt id='1406'> +2.7560102e+11 </wgt>
<wgt id='1407'> +2.7642138e+11 </wgt>
<wgt id='1408'> +2.7901298e+11 </wgt>
<wgt id='1409'> +2.7357734e+11 </wgt>
<wgt id='1410'> +2.7317806e+11 </wgt>
<wgt id='1411'> +2.7544011e+11 </wgt>
<wgt id='1412'> +2.7455793e+11 </wgt>
<wgt id='1413'> +2.7269916e+11 </wgt>
<wgt id='1414'> +2.7753519e+11 </wgt>
<wgt id='1415'> +2.8141751e+11 </wgt>
<wgt id='1416'> +2.7885056e+11 </wgt>
<wgt id='1417'> +2.6922066e+11 </wgt>
<wgt id='1418'> +2.7733585e+11 </wgt>
<wgt id='1419'> +2.7932890e+11 </wgt>
<wgt id='1420'> +2.7494819e+11 </wgt>
<wgt id='1421'> +2.8181262e+11 </wgt>
<wgt id='1422'> +2.6823586e+11 </wgt>
<wgt id='1423'> +2.8098762e+11 </wgt>
<wgt id='1424'> +2.7680361e+11 </wgt>
<wgt id='1425'> +2.7600826e+11 </wgt>
<wgt id='1426'> +2.7920756e+11 </wgt>
<wgt id='1427'> +2.7569580e+11 </wgt>
<wgt id='1428'> +2.7558062e+11 </wgt>
<wgt id='1429'> +2.7182935e+11 </wgt>
<wgt id='1430'> +2.7106208e+11 </wgt>
<wgt id='1431'> +2.7099447e+11 </wgt>
<wgt id='1432'> +2.7754828e+11 </wgt>
<wgt id='1433'> +2.7626596e+11 </wgt>
<wgt id='1434'> +2.8252902e+11 </wgt>
<wgt id='1435'> +2.7486611e+11 </wgt>
<wgt id='1436'> +2.7986569e+11 </wgt>
<wgt id='1437'> +2.7830288e+11 </wgt>
<wgt id='1438'> +2.7386719e+11 </wgt>
<wgt id='1439'> +2.7663813e+11 </wgt>
<wgt id='1440'> +2.8025014e+11 </wgt>
<wgt id='1441'> +2.7551984e+11 </wgt>
<wgt id='1442'> +2.8325571e+11 </wgt>
<wgt id='1443'> +2.7389943e+11 </wgt>
<wgt id='1444'> +2.7426580e+11 </wgt>
<wgt id='1445'> +2.7861624e+11 </wgt>
<wgt id='1446'> +2.7815854e+11 </wgt>
<wgt id='1447'> +2.7183804e+11 </wgt>
<wgt id='1448'> +2.7811946e+11 </wgt>
<wgt id='1449'> +2.7720574e+11 </wgt>
<wgt id='1450'> +2.7395361e+11 </wgt>
<wgt id='1451'> +2.7703268e+11 </wgt>
<wgt id='1452'> +2.7886649e+11 </wgt>
<wgt id='1453'> +2.8056033e+11 </wgt>
<wgt id='1454'> +2.6905857e+11 </wgt>
<wgt id='1455'> +2.7497429e+11 </wgt>
<wgt id='1456'> +2.7498024e+11 </wgt>
<wgt id='1457'> +2.7453870e+11 </wgt>
<wgt id='1458'> +2.7777657e+11 </wgt>
<wgt id='1459'> +3.0530234e+11 </wgt>
<wgt id='1460'> +3.0061706e+11 </wgt>
<wgt id='1461'> +3.4816575e+11 </wgt>
<wgt id='1462'> +2.9977980e+11 </wgt>
<wgt id='1463'> +3.0002892e+11 </wgt>
<wgt id='1464'> +2.9946035e+11 </wgt>
<wgt id='1465'> +2.9984144e+11 </wgt>
<wgt id='1466'> +2.9972351e+11 </wgt>
<wgt id='1467'> +2.9994141e+11 </wgt>
<wgt id='1468'> +2.9951469e+11 </wgt>
<wgt id='1469'> +2.9932969e+11 </wgt>
<wgt id='1470'> +3.0014540e+11 </wgt>
<wgt id='1471'> +3.0025762e+11 </wgt>
<wgt id='1472'> +2.9928768e+11 </wgt>
<wgt id='1473'> +3.0093231e+11 </wgt>
<wgt id='1474'> +2.9867285e+11 </wgt>
<wgt id='1475'> +3.0087945e+11 </wgt>
<wgt id='1476'> +2.9900018e+11 </wgt>
<wgt id='1477'> +2.9920686e+11 </wgt>
<wgt id='1478'> +3.0111817e+11 </wgt>
<wgt id='1479'> +2.9921084e+11 </wgt>
<wgt id='1480'> +3.0017712e+11 </wgt>
<wgt id='1481'> +2.9935635e+11 </wgt>
<wgt id='1482'> +3.0035087e+11 </wgt>
<wgt id='1483'> +2.9987723e+11 </wgt>
<wgt id='1484'> +2.9964151e+11 </wgt>
<wgt id='1485'> +2.9998162e+11 </wgt>
<wgt id='1486'> +2.9929384e+11 </wgt>
<wgt id='1487'> +3.0003017e+11 </wgt>
<wgt id='1488'> +2.9946503e+11 </wgt>
<wgt id='1489'> +2.9942774e+11 </wgt>
<wgt id='1490'> +3.0073424e+11 </wgt>
<wgt id='1491'> +3.0470367e+11 </wgt>
<wgt id='1492'> +2.9703166e+11 </wgt>
<wgt id='1493'> +2.9627671e+11 </wgt>
<wgt id='1494'> +3.1075881e+11 </wgt>
<wgt id='1495'> +2.9914184e+11 </wgt>
<wgt id='1496'> +3.0046410e+11 </wgt>
<wgt id='1497'> +2.9997878e+11 </wgt>
<wgt id='1498'> +2.9950787e+11 </wgt>
<wgt id='1499'> +3.0165183e+11 </wgt>
<wgt id='1500'> +2.9875571e+11 </wgt>
<wgt id='1501'> +3.0024396e+11 </wgt>
<wgt id='1502'> +2.9854962e+11 </wgt>
<wgt id='1503'> +2.9663197e+11 </wgt>
<wgt id='1504'> +3.0312204e+11 </wgt>
<wgt id='1505'> +3.0080274e+11 </wgt>
<wgt id='1506'> +2.9879682e+11 </wgt>
<wgt id='1507'> +3.0111025e+11 </wgt>
<wgt id='1508'> +2.9898721e+11 </wgt>
<wgt id='1509'> +3.0035638e+11 </wgt>
<wgt id='1510'> +2.9730523e+11 </wgt>
<wgt id='1511'> +3.0089094e+11 </wgt>
<wgt id='1512'> +2.9946500e+11 </wgt>
<wgt id='1513'> +2.9970008e+11 </wgt>
<wgt id='1514'> +2.9985319e+11 </wgt>
<wgt id='1515'> +3.0220396e+11 </wgt>
<wgt id='1516'> +3.0023017e+11 </wgt>
<wgt id='1517'> +2.9940575e+11 </wgt>
<wgt id='1518'> +3.0008994e+11 </wgt>
<wgt id='1519'> +2.9814822e+11 </wgt>
<wgt id='1520'> +3.0094101e+11 </wgt>
<wgt id='1521'> +2.9900855e+11 </wgt>
<wgt id='1522'> +3.0024236e+11 </wgt>
<wgt id='1523'> +3.0114269e+11 </wgt>
<wgt id='1524'> +3.0113947e+11 </wgt>
<wgt id='1525'> +3.0101320e+11 </wgt>
<wgt id='1526'> +3.0056681e+11 </wgt>
<wgt id='1527'> +2.9977980e+11 </wgt>
<wgt id='1528'> +2.9959233e+11 </wgt>
<wgt id='1529'> +2.9944192e+11 </wgt>
<wgt id='1530'> +2.9568706e+11 </wgt>
<wgt id='1531'> +2.9659817e+11 </wgt>
<wgt id='1532'> +2.9421066e+11 </wgt>
<wgt id='1533'> +2.9215701e+11 </wgt>
<wgt id='1534'> +2.9497966e+11 </wgt>
<wgt id='1535'> +2.9906816e+11 </wgt>
<wgt id='1536'> +2.9362250e+11 </wgt>
<wgt id='1537'> +2.9649721e+11 </wgt>
<wgt id='1538'> +2.9343526e+11 </wgt>
<wgt id='1539'> +3.0278041e+11 </wgt>
<wgt id='1540'> +2.9577759e+11 </wgt>
<wgt id='1541'> +2.9680081e+11 </wgt>
<wgt id='1542'> +2.9651776e+11 </wgt>
<wgt id='1543'> +2.9766801e+11 </wgt>
<wgt id='1544'> +2.9469123e+11 </wgt>
<wgt id='1545'> +2.9463333e+11 </wgt>
<wgt id='1546'> +2.9268691e+11 </wgt>
<wgt id='1547'> +2.9889767e+11 </wgt>
<wgt id='1548'> +2.9460784e+11 </wgt>
<wgt id='1549'> +2.9323288e+11 </wgt>
<wgt id='1550'> +2.9724903e+11 </wgt>
<wgt id='1551'> +2.9723190e+11 </wgt>
<wgt id='1552'> +2.9594326e+11 </wgt>
<wgt id='1553'> +2.9846464e+11 </wgt>
<wgt id='1554'> +2.9644433e+11 </wgt>
<wgt id='1555'> +2.9720854e+11 </wgt>
<wgt id='1556'> +2.9896805e+11 </wgt>
<wgt id='1557'> +2.9576274e+11 </wgt>
<wgt id='1558'> +2.9659143e+11 </wgt>
<wgt id='1559'> +2.9455271e+11 </wgt>
<wgt id='1560'> +2.9537203e+11 </wgt>
<wgt id='1561'> +2.9272881e+11 </wgt>
<wgt id='1562'> +2.9517448e+11 </wgt>
<wgt id='1563'> +2.9654096e+11 </wgt>
<wgt id='1564'> +2.9620045e+11 </wgt>
<wgt id='1565'> +2.9876910e+11 </wgt>
<wgt id='1566'> +2.9684883e+11 </wgt>
<wgt id='1567'> +3.0014681e+11 </wgt>
<wgt id='1568'> +2.9653954e+11 </wgt>
<wgt id='1569'> +2.9623677e+11 </wgt>
<wgt id='1570'> +2.9899807e+11 </wgt>
<wgt id='1571'> +2.9637434e+11 </wgt>
<wgt id='1572'> +2.9835773e+11 </wgt>
<wgt id='1573'> +2.9946952e+11 </wgt>
<wgt id='1574'> +2.6701102e+11 </wgt>
<wgt id='1575'> +2.6708375e+11 </wgt>
<wgt id='1576'> +2.6694306e+11 </wgt>
<wgt id='1577'> +2.6702940e+11 </wgt>
<wgt id='1578'> +2.6762479e+11 </wgt>
<wgt id='1579'> +2.6787804e+11 </wgt>
<wgt id='1580'> +2.6765046e+11 </wgt>
<wgt id='1581'> +2.6638187e+11 </wgt>
<wgt id='1582'> +2.6607366e+11 </wgt>
<wgt id='1583'> +2.6656423e+11 </wgt>
<wgt id='1584'> +2.6759380e+11 </wgt>
<wgt id='1585'> +2.6720095e+11 </wgt>
<wgt id='1586'> +2.6598483e+11 </wgt>
<wgt id='1587'> +2.6624218e+11 </wgt>
<wgt id='1588'> +2.6573699e+11 </wgt>
<wgt id='1589'> +2.6675735e+11 </wgt>
<wgt id='1590'> +2.6682376e+11 </wgt>
<wgt id='1591'> +2.6707923e+11 </wgt>
<wgt id='1592'> +2.6597489e+11 </wgt>
<wgt id='1593'> +2.6613984e+11 </wgt>
<wgt id='1594'> +2.6782879e+11 </wgt>
<wgt id='1595'> +2.6476799e+11 </wgt>
<wgt id='1596'> +2.7060762e+11 </wgt>
<wgt id='1597'> +2.6875113e+11 </wgt>
<wgt id='1598'> +2.6897579e+11 </wgt>
<wgt id='1599'> +2.6425847e+11 </wgt>
<wgt id='1600'> +2.7144702e+11 </wgt>
<wgt id='1601'> +2.6915666e+11 </wgt>
<wgt id='1602'> +2.6706842e+11 </wgt>
<wgt id='1603'> +2.7752809e+11 </wgt>
<wgt id='1604'> +2.6702607e+11 </wgt>
</rwgt>
</event>
<event>
 9      1 +2.8343000e+11 1.39999900e+03 7.81738600e-03 7.88881200e-02
       21 -1    0    0  504  503 +0.0000000000e+00 +0.0000000000e+00 +4.4525459318e+02 4.4525459318e+02 0.0000000000e+00 0.0000e+00 -1.0000e+00
       21 -1    0    0  503  504 -0.0000000000e+00 -0.0000000000e+00 -1.1004928113e+03 1.1004928113e+03 0.0000000000e+00 0.0000e+00 -1.0000e+00
       45  2    1    2    0    0 +0.0000000000e+00 -1.1368683772e-13 -6.5523821814e+02 1.5457474045e+03 1.3999992557e+03 0.0000e+00 0.0000e+00
       25  2    3    3    0    0 +9.0919041832e+01 -6.8385876283e+02 -2.7691909114e+02 7.5381681224e+02 1.2500609470e+02 0.0000e+00 0.0000e+00
       35  2    3    3    0    0 -9.0919041832e+01 +6.8385876283e+02 -3.7831912700e+02 7.9193059227e+02 8.9997896901e+01 0.0000e+00 0.0000e+00
        5  1    5    5  501    0 -7.7571567653e+01 +5.4007306171e+02 -2.5629735290e+02 6.0282862489e+02 4.2140000000e+00 0.0000e+00 1.0000e+00
       -5  1    5    5    0  501 -1.3347474179e+01 +1.4378570112e+02 -1.2202177410e+02 1.8910196738e+02 4.2140000000e+00 0.0000e+00 1.0000e+00
        5  1    4    4  502    0 +1.8682755690e+01 -4.1130351696e+01 -5.2059823411e+01 6.9056022188e+01 4.2140000000e+00 0.0000e+00 1.0000e+00
       -5  1    4    4    0  502 +7.2236286142e+01 -6.4272841113e+02 -2.2485926773e+02 6.8476079005e+02 4.2140000000e+00 0.0000e+00 1.0000e+00
<mgrwt>
<rscale>  0 0.13999993E+04</rscale>
<asrwt>0</asrwt>
<pdfrwt beam="1">  1       21 0.68500707E-01 0.13999993E+04</pdfrwt>
<pdfrwt beam="2">  1       21 0.16930658E+00 0.13999993E+04</pdfrwt>
<totfact> 0.30043691E+02</totfact>
</mgrwt>
<rwgt>
<wgt id='1001'> +2.8343000e+11 </wgt>
<wgt id='1002'> +2.8402077e+11 </wgt>
<wgt id='1003'> +2.8401605e+11 </wgt>
<wgt id='1004'> +3.1912190e+11 </wgt>
<wgt id='1005'> +2.8343000e+11 </wgt>
<wgt id='1006'> +2.8343000e+11 </wgt>
<wgt id='1007'> +2.8402077e+11 </wgt>
<wgt id='1008'> +2.8401605e+11 </wgt>
<wgt id='1009'> +3.1912190e+11 </wgt>
<wgt id='1010'> +2.8343000e+11 </wgt>
<wgt id='1011'> +2.8343000e+11 </wgt>
<wgt id='1012'> +2.8402077e+11 </wgt>
<wgt id='1013'> +2.8401605e+11 </wgt>
<wgt id='1014'> +3.1912190e+11 </wgt>
<wgt id='1015'> +2.8343000e+11 </wgt>
<wgt id='1016'> +2.5413867e+11 </wgt>
<wgt id='1017'> +2.5463798e+11 </wgt>
<wgt id='1018'> +2.5463399e+11 </wgt>
<wgt id='1019'> +2.8401605e+11 </wgt>
<wgt id='1020'> +2.5413867e+11 </wgt>
<wgt id='1021'> +2.5413867e+11 </wgt>
<wgt id='1022'> +2.5463798e+11 </wgt>
<wgt id='1023'> +2.5463399e+11 </wgt>
<wgt id='1024'> +2.8401605e+11 </wgt>
<wgt id='1025'> +2.5413867e+11 </wgt>
<wgt id='1026'> +2.5413867e+11 </wgt>
<wgt id='1027'> +2.5463798e+11 </wgt>
<wgt id='1028'> +2.5463399e+11 </wgt>
<wgt id='1029'> +2.8401605e+11 </wgt>
<wgt id='1030'> +2.5413867e+11 </wgt>
<wgt id='1031'> +3.1841734e+11 </wgt>
<wgt id='1032'> +3.1912758e+11 </wgt>
<wgt id='1033'> +3.1912190e+11 </wgt>
<wgt id='1034'> +3.6142864e+11 </wgt>
<wgt id='1035'> +3.1841734e+11 </wgt>
<wgt id='1036'> +3.1841734e+11 </wgt>
<wgt id='1037'> +3.1912758e+11 </wgt>
<wgt id='1038'> +3.1912190e+11 </wgt>
<wgt id='1039'> +3.6142864e+11 </wgt>
<wgt id='1040'> +3.1841734e+11 </wgt>
<wgt id='1041'> +3.1841734e+11 </wgt>
<wgt id='1042'> +3.1912758e+11 </wgt>
<wgt id='1043'> +3.1912190e+11 </wgt>
<wgt id='1044'> +3.6142864e+11 </wgt>
<wgt id='1045'> +3.1841734e+11 </wgt>
<wgt id='1046'> +2.8343000e+11 </wgt>
<wgt id='1047'> +2.8343000e+11 </wgt>
<wgt id='1048'> +2.8343000e+11 </wgt>
<wgt id='1049'> +2.8276957e+11 </wgt>
<wgt id='1050'> +2.8324337e+11 </wgt>
<wgt id='1051'> +2.8328316e+11 </wgt>
<wgt id='1052'> +2.8434879e+11 </wgt>
<wgt id='1053'> +2.8170095e+11 </wgt>
<wgt id='1054'> +2.8371952e+11 </wgt>
<wgt id='1055'> +2.8223070e+11 </wgt>
<wgt id='1056'> +2.8210857e+11 </wgt>
<wgt id='1057'> +2.8359455e+11 </wgt>
<wgt id='1058'> +2.8284788e+11 </wgt>
<wgt id='1059'> +2.8521816e+11 </wgt>
<wgt id='1060'> +2.8379062e+11 </wgt>
<wgt id='1061'> +2.8396633e+11 </wgt>
<wgt id='1062'> +2.8425189e+11 </wgt>
<wgt id='1063'> +2.8441430e+11 </wgt>
<wgt id='1064'> +2.8410760e+11 </wgt>
<wgt id='1065'> +2.8467096e+11 </wgt>
<wgt id='1066'> +2.8131877e+11 </wgt>
<wgt id='1067'> +2.8145915e+11 </wgt>
<wgt id='1068'> +2.8332473e+11 </wgt>
<wgt id='1069'> +2.8257773e+11 </wgt>
<wgt id='1070'> +2.8389376e+11 </wgt>
<wgt id='1071'> +2.8332252e+11 </wgt>
<wgt id='1072'> +2.8213191e+11 </wgt>
<wgt id='1073'> +2.8341794e+11 </wgt>
<wgt id='1074'> +2.8323621e+11 </wgt>
<wgt id='1075'> +2.8445419e+11 </wgt>
<wgt id='1076'> +2.8163898e+11 </wgt>
<wgt id='1077'> +2.8210362e+11 </wgt>
<wgt id='1078'> +2.8410583e+11 </wgt>
<wgt id='1079'> +2.8217219e+11 </wgt>
<wgt id='1080'> +2.8317901e+11 </wgt>
<wgt id='1081'> +2.8293952e+11 </wgt>
<wgt id='1082'> +2.8220059e+11 </wgt>
<wgt id='1083'> +2.8389750e+11 </wgt>
<wgt id='1084'> +2.8391482e+11 </wgt>
<wgt id='1085'> +2.8274130e+11 </wgt>
<wgt id='1086'> +2.8313522e+11 </wgt>
<wgt id='1087'> +2.8316338e+11 </wgt>
<wgt id='1088'> +2.8294556e+11 </wgt>
<wgt id='1089'> +2.8262137e+11 </wgt>
<wgt id='1090'> +2.8410280e+11 </wgt>
<wgt id='1091'> +2.8351998e+11 </wgt>
<wgt id='1092'> +2.8376086e+11 </wgt>
<wgt id='1093'> +2.8337919e+11 </wgt>
<wgt id='1094'> +2.8268801e+11 </wgt>
<wgt id='1095'> +2.8362958e+11 </wgt>
<wgt id='1096'> +2.8341539e+11 </wgt>
<wgt id='1097'> +2.8297941e+11 </wgt>
<wgt id='1098'> +2.8311098e+11 </wgt>
<wgt id='1099'> +2.8317430e+11 </wgt>
<wgt id='1100'> +2.8405056e+11 </wgt>
<wgt id='1101'> +2.8347494e+11 </wgt>
<wgt id='1102'> +2.8332101e+11 </wgt>
<wgt id='1103'> +2.8294076e+11 </wgt>
<wgt id='1104'> +2.8318811e+11 </wgt>
<wgt id='1105'> +2.8352860e+11 </wgt>
<wgt id='1106'> +2.8376277e+11 </wgt>
<wgt id='1107'> +2.8347482e+11 </wgt>
<wgt id='1108'> +2.8326502e+11 </wgt>
<wgt id='1109'> +2.8322578e+11 </wgt>
<wgt id='1110'> +2.8372313e+11 </wgt>
<wgt id='1111'> +2.8358349e+11 </wgt>
<wgt id='1112'> +2.8338575e+11 </wgt>
<wgt id='1113'> +2.8376345e+11 </wgt>
<wgt id='1114'> +2.8312461e+11 </wgt>
<wgt id='1115'> +2.8312914e+11 </wgt>
<wgt id='1116'> +2.8390565e+11 </wgt>
<wgt id='1117'> +2.8336079e+11 </wgt>
<wgt id='1118'> +2.8361676e+11 </wgt>
<wgt id='1119'> +2.8314404e+11 </wgt>
<wgt id='1120'> +2.8320217e+11 </wgt>
<wgt id='1121'> +2.8351424e+11 </wgt>
<wgt id='1122'> +2.8317014e+11 </wgt>
<wgt id='1123'> +2.8337546e+11 </wgt>
<wgt id='1124'> +2.8340677e+11 </wgt>
<wgt id='1125'> +2.8360913e+11 </wgt>
<wgt id='1126'> +2.8354233e+11 </wgt>
<wgt id='1127'> +2.8329589e+11 </wgt>
<wgt id='1128'> +2.8342493e+11 </wgt>
<wgt id='1129'> +2.8333273e+11 </wgt>
<wgt id='1130'> +2.8346264e+11 </wgt>
<wgt id='1131'> +2.8381871e+11 </wgt>
<wgt id='1132'> +2.8334654e+11 </wgt>
<wgt id='1133'> +2.8354083e+11 </wgt>
<wgt id='1134'> +2.8342195e+11 </wgt>
<wgt id='1135'> +2.8346678e+11 </wgt>
<wgt id='1136'> +2.8336196e+11 </wgt>
<wgt id='1137'> +2.8324939e+11 </wgt>
<wgt id='1138'> +2.8356293e+11 </wgt>
<wgt id='1139'> +2.8349109e+11 </wgt>
<wgt id='1140'> +2.8366521e+11 </wgt>
<wgt id='1141'> +2.8324383e+11 </wgt>
<wgt id='1142'> +2.8348720e+11 </wgt>
<wgt id='1143'> +2.8360613e+11 </wgt>
<wgt id='1144'> +2.8333079e+11 </wgt>
<wgt id='1145'> +2.8356964e+11 </wgt>
<wgt id='1146'> +2.8345542e+11 </wgt>
<wgt id='1147'> +2.8348475e+11 </wgt>
<wgt id='1148'> +2.8343000e+11 </wgt>
<wgt id='1149'> +2.8343000e+11 </wgt>
<wgt id='1150'> +2.9691009e+11 </wgt>
<wgt id='1151'> +2.7787988e+11 </wgt>
<wgt id='1152'> +2.7810488e+11 </wgt>
<wgt id='1153'> +2.8614811e+11 </wgt>
<wgt id='1154'> +2.8305740e+11 </wgt>
<wgt id='1155'> +2.9232853e+11 </wgt>
<wgt id='1156'> +2.7752220e+11 </wgt>
<wgt id='1157'> +2.7457908e+11 </wgt>
<wgt id='1158'> +2.7708392e+11 </wgt>
<wgt id='1159'> +2.9994097e+11 </wgt>
<wgt id='1160'> +2.8472349e+11 </wgt>
<wgt id='1161'> +2.8715580e+11 </wgt>
<wgt id='1162'> +2.8382958e+11 </wgt>
<wgt id='1163'> +2.8626296e+11 </wgt>
<wgt id='1164'> +2.7239108e+11 </wgt>
<wgt id='1165'> +2.7783285e+11 </wgt>
<wgt id='1166'> +2.8329255e+11 </wgt>
<wgt id='1167'> +2.7811891e+11 </wgt>
<wgt id='1168'> +2.7471205e+11 </wgt>
<wgt id='1169'> +2.7576877e+11 </wgt>
<wgt id='1170'> +2.8329094e+11 </wgt>
<wgt id='1171'> +2.7290933e+11 </wgt>
<wgt id='1172'> +2.7516791e+11 </wgt>
<wgt id='1173'> +2.8565019e+11 </wgt>
<wgt id='1174'> +2.7715922e+11 </wgt>
<wgt id='1175'> +2.7785225e+11 </wgt>
<wgt id='1176'> +2.8659079e+11 </wgt>
<wgt id='1177'> +2.7806392e+11 </wgt>
<wgt id='1178'> +2.8365207e+11 </wgt>
<wgt id='1179'> +2.8262244e+11 </wgt>
<wgt id='1180'> +2.8980683e+11 </wgt>
<wgt id='1181'> +2.8700142e+11 </wgt>
<wgt id='1182'> +2.8008548e+11 </wgt>
<wgt id='1183'> +2.9064789e+11 </wgt>
<wgt id='1184'> +2.8297355e+11 </wgt>
<wgt id='1185'> +2.8699863e+11 </wgt>
<wgt id='1186'> +2.7655759e+11 </wgt>
<wgt id='1187'> +2.8429576e+11 </wgt>
<wgt id='1188'> +2.8666125e+11 </wgt>
<wgt id='1189'> +2.8234557e+11 </wgt>
<wgt id='1190'> +2.8136126e+11 </wgt>
<wgt id='1191'> +2.9112602e+11 </wgt>
<wgt id='1192'> +2.8906904e+11 </wgt>
<wgt id='1193'> +2.9147240e+11 </wgt>
<wgt id='1194'> +2.8104293e+11 </wgt>
<wgt id='1195'> +2.8432222e+11 </wgt>
<wgt id='1196'> +2.9161027e+11 </wgt>
<wgt id='1197'> +2.9132372e+11 </wgt>
<wgt id='1198'> +2.8363637e+11 </wgt>
<wgt id='1199'> +2.8758490e+11 </wgt>
<wgt id='1200'> +2.8676087e+11 </wgt>
<wgt id='1201'> +2.8040433e+11 </wgt>
<wgt id='1202'> +2.8668287e+11 </wgt>
<wgt id='1203'> +2.8098792e+11 </wgt>
<wgt id='1204'> +2.8326364e+11 </wgt>
<wgt id='1205'> +2.8375214e+11 </wgt>
<wgt id='1206'> +2.7928314e+11 </wgt>
<wgt id='1207'> +2.9128183e+11 </wgt>
<wgt id='1208'> +2.7078722e+11 </wgt>
<wgt id='1209'> +2.8272641e+11 </wgt>
<wgt id='1210'> +2.8527529e+11 </wgt>
<wgt id='1211'> +2.8469208e+11 </wgt>
<wgt id='1212'> +2.8308555e+11 </wgt>
<wgt id='1213'> +2.8941645e+11 </wgt>
<wgt id='1214'> +2.7723312e+11 </wgt>
<wgt id='1215'> +2.8536842e+11 </wgt>
<wgt id='1216'> +2.8209833e+11 </wgt>
<wgt id='1217'> +2.7759870e+11 </wgt>
<wgt id='1218'> +2.8485580e+11 </wgt>
<wgt id='1219'> +2.9365241e+11 </wgt>
<wgt id='1220'> +2.7926307e+11 </wgt>
<wgt id='1221'> +2.7649178e+11 </wgt>
<wgt id='1222'> +2.7879059e+11 </wgt>
<wgt id='1223'> +2.7315494e+11 </wgt>
<wgt id='1224'> +2.8286455e+11 </wgt>
<wgt id='1225'> +2.8776732e+11 </wgt>
<wgt id='1226'> +2.8703838e+11 </wgt>
<wgt id='1227'> +2.7902953e+11 </wgt>
<wgt id='1228'> +2.8210456e+11 </wgt>
<wgt id='1229'> +3.0130041e+11 </wgt>
<wgt id='1230'> +2.9029598e+11 </wgt>
<wgt id='1231'> +2.7783285e+11 </wgt>
<wgt id='1232'> +2.8742339e+11 </wgt>
<wgt id='1233'> +2.7655082e+11 </wgt>
<wgt id='1234'> +2.7737630e+11 </wgt>
<wgt id='1235'> +2.9995904e+11 </wgt>
<wgt id='1236'> +2.7741572e+11 </wgt>
<wgt id='1237'> +2.8910942e+11 </wgt>
<wgt id='1238'> +2.8324369e+11 </wgt>
<wgt id='1239'> +2.8700877e+11 </wgt>
<wgt id='1240'> +2.7932315e+11 </wgt>
<wgt id='1241'> +2.8511077e+11 </wgt>
<wgt id='1242'> +2.8001693e+11 </wgt>
<wgt id='1243'> +2.8599784e+11 </wgt>
<wgt id='1244'> +2.8616894e+11 </wgt>
<wgt id='1245'> +2.7912665e+11 </wgt>
<wgt id='1246'> +3.0487551e+11 </wgt>
<wgt id='1247'> +2.8167297e+11 </wgt>
<wgt id='1248'> +2.7341255e+11 </wgt>
<wgt id='1249'> +2.7590365e+11 </wgt>
<wgt id='1250'> +2.9294021e+11 </wgt>
<wgt id='1251'> +3.0071013e+11 </wgt>
<wgt id='1252'> +2.8813960e+11 </wgt>
<wgt id='1253'> +2.8918796e+11 </wgt>
<wgt id='1254'> +2.8910164e+11 </wgt>
<wgt id='1255'> +3.0146309e+11 </wgt>
<wgt id='1256'> +3.0150174e+11 </wgt>
<wgt id='1257'> +2.9667959e+11 </wgt>
<wgt id='1258'> +2.9524623e+11 </wgt>
<wgt id='1259'> +3.0024082e+11 </wgt>
<wgt id='1260'> +3.2664332e+11 </wgt>
<wgt id='1261'> +3.1436725e+11 </wgt>
<wgt id='1262'> +2.9257413e+11 </wgt>
<wgt id='1263'> +2.9859945e+11 </wgt>
<wgt id='1264'> +3.0144433e+11 </wgt>
<wgt id='1265'> +2.9587958e+11 </wgt>
<wgt id='1266'> +3.0119947e+11 </wgt>
<wgt id='1267'> +3.3515055e+11 </wgt>
<wgt id='1268'> +2.9127142e+11 </wgt>
<wgt id='1269'> +2.8721639e+11 </wgt>
<wgt id='1270'> +3.0012369e+11 </wgt>
<wgt id='1271'> +2.7148547e+11 </wgt>
<wgt id='1272'> +2.9336915e+11 </wgt>
<wgt id='1273'> +2.9115243e+11 </wgt>
<wgt id='1274'> +2.8680542e+11 </wgt>
<wgt id='1275'> +2.9588444e+11 </wgt>
<wgt id='1276'> +3.0024437e+11 </wgt>
<wgt id='1277'> +2.9530516e+11 </wgt>
<wgt id='1278'> +2.9577182e+11 </wgt>
<wgt id='1279'> +2.8032957e+11 </wgt>
<wgt id='1280'> +2.8799066e+11 </wgt>
<wgt id='1281'> +2.8537477e+11 </wgt>
<wgt id='1282'> +2.9594130e+11 </wgt>
<wgt id='1283'> +3.0454929e+11 </wgt>
<wgt id='1284'> +3.1125272e+11 </wgt>
<wgt id='1285'> +3.0843615e+11 </wgt>
<wgt id='1286'> +3.2966843e+11 </wgt>
<wgt id='1287'> +3.0599141e+11 </wgt>
<wgt id='1288'> +3.2995241e+11 </wgt>
<wgt id='1289'> +3.1396593e+11 </wgt>
<wgt id='1290'> +3.1232397e+11 </wgt>
<wgt id='1291'> +2.7838631e+11 </wgt>
<wgt id='1292'> +3.0112002e+11 </wgt>
<wgt id='1293'> +3.0256403e+11 </wgt>
<wgt id='1294'> +3.1966556e+11 </wgt>
<wgt id='1295'> +3.0699884e+11 </wgt>
<wgt id='1296'> +3.2365394e+11 </wgt>
<wgt id='1297'> +2.9294382e+11 </wgt>
<wgt id='1298'> +2.8830848e+11 </wgt>
<wgt id='1299'> +3.0232384e+11 </wgt>
<wgt id='1300'> +2.8679764e+11 </wgt>
<wgt id='1301'> +2.7965404e+11 </wgt>
<wgt id='1302'> +2.8183336e+11 </wgt>
<wgt id='1303'> +3.0156930e+11 </wgt>
<wgt id='1304'> +3.1819648e+11 </wgt>
<wgt id='1305'> +2.9876566e+11 </wgt>
<wgt id='1306'> +3.0604900e+11 </wgt>
<wgt id='1307'> +2.9446383e+11 </wgt>
<wgt id='1308'> +3.2880954e+11 </wgt>
<wgt id='1309'> +2.9898525e+11 </wgt>
<wgt id='1310'> +3.0308856e+11 </wgt>
<wgt id='1311'> +3.0232535e+11 </wgt>
<wgt id='1312'> +3.0718784e+11 </wgt>
<wgt id='1313'> +3.0109771e+11 </wgt>
<wgt id='1314'> +2.9840330e+11 </wgt>
<wgt id='1315'> +2.8705649e+11 </wgt>
<wgt id='1316'> +2.9978051e+11 </wgt>
<wgt id='1317'> +3.0724664e+11 </wgt>
<wgt id='1318'> +2.9067341e+11 </wgt>
<wgt id='1319'> +3.0000817e+11 </wgt>
<wgt id='1320'> +3.1440720e+11 </wgt>
<wgt id='1321'> +2.9839801e+11 </wgt>
<wgt id='1322'> +3.0378936e+11 </wgt>
<wgt id='1323'> +2.9359287e+11 </wgt>
<wgt id='1324'> +3.0513132e+11 </wgt>
<wgt id='1325'> +3.1215615e+11 </wgt>
<wgt id='1326'> +3.0738456e+11 </wgt>
<wgt id='1327'> +3.0610678e+11 </wgt>
<wgt id='1328'> +2.9865205e+11 </wgt>
<wgt id='1329'> +2.9820504e+11 </wgt>
<wgt id='1330'> +2.8755927e+11 </wgt>
<wgt id='1331'> +3.2167574e+11 </wgt>
<wgt id='1332'> +2.9281038e+11 </wgt>
<wgt id='1333'> +3.0200039e+11 </wgt>
<wgt id='1334'> +3.1590786e+11 </wgt>
<wgt id='1335'> +2.9315290e+11 </wgt>
<wgt id='1336'> +3.1080402e+11 </wgt>
<wgt id='1337'> +3.0905934e+11 </wgt>
<wgt id='1338'> +2.8869002e+11 </wgt>
<wgt id='1339'> +3.1745880e+11 </wgt>
<wgt id='1340'> +3.0523015e+11 </wgt>
<wgt id='1341'> +3.1535762e+11 </wgt>
<wgt id='1342'> +3.0792684e+11 </wgt>
<wgt id='1343'> +3.0952035e+11 </wgt>
<wgt id='1344'> +3.1238955e+11 </wgt>
<wgt id='1345'> +2.7044615e+11 </wgt>
<wgt id='1346'> +3.0290399e+11 </wgt>
<wgt id='1347'> +2.9038859e+11 </wgt>
<wgt id='1348'> +2.8976687e+11 </wgt>
<wgt id='1349'> +2.8793304e+11 </wgt>
<wgt id='1350'> +3.0549148e+11 </wgt>
<wgt id='1351'> +2.9357213e+11 </wgt>
<wgt id='1352'> +3.0280277e+11 </wgt>
<wgt id='1353'> +2.9953456e+11 </wgt>
<wgt id='1354'> +3.0881661e+11 </wgt>
<wgt id='1355'> +2.7669682e+11 </wgt>
<wgt id='1356'> +2.7937172e+11 </wgt>
<wgt id='1357'> +2.7708818e+11 </wgt>
<wgt id='1358'> +2.7474239e+11 </wgt>
<wgt id='1359'> +2.7663683e+11 </wgt>
<wgt id='1360'> +2.7125157e+11 </wgt>
<wgt id='1361'> +2.7590639e+11 </wgt>
<wgt id='1362'> +2.8219110e+11 </wgt>
<wgt id='1363'> +2.7298602e+11 </wgt>
<wgt id='1364'> +2.8177229e+11 </wgt>
<wgt id='1365'> +2.7450924e+11 </wgt>
<wgt id='1366'> +2.7422024e+11 </wgt>
<wgt id='1367'> +2.7702663e+11 </wgt>
<wgt id='1368'> +2.7703017e+11 </wgt>
<wgt id='1369'> +2.7985510e+11 </wgt>
<wgt id='1370'> +2.7437451e+11 </wgt>
<wgt id='1371'> +2.7648586e+11 </wgt>
<wgt id='1372'> +2.7944284e+11 </wgt>
<wgt id='1373'> +2.7994661e+11 </wgt>
<wgt id='1374'> +2.6900548e+11 </wgt>
<wgt id='1375'> +2.7711398e+11 </wgt>
<wgt id='1376'> +2.7636681e+11 </wgt>
<wgt id='1377'> +2.7724264e+11 </wgt>
<wgt id='1378'> +2.7501125e+11 </wgt>
<wgt id='1379'> +2.7517504e+11 </wgt>
<wgt id='1380'> +2.7440600e+11 </wgt>
<wgt id='1381'> +2.8157495e+11 </wgt>
<wgt id='1382'> +2.7586994e+11 </wgt>
<wgt id='1383'> +2.7503332e+11 </wgt>
<wgt id='1384'> +2.7368986e+11 </wgt>
<wgt id='1385'> +2.7327381e+11 </wgt>
<wgt id='1386'> +2.7634059e+11 </wgt>
<wgt id='1387'> +2.7511336e+11 </wgt>
<wgt id='1388'> +2.7222412e+11 </wgt>
<wgt id='1389'> +2.7558853e+11 </wgt>
<wgt id='1390'> +2.7780636e+11 </wgt>
<wgt id='1391'> +2.7480454e+11 </wgt>
<wgt id='1392'> +2.7395476e+11 </wgt>
<wgt id='1393'> +2.7648094e+11 </wgt>
<wgt id='1394'> +2.7504863e+11 </wgt>
<wgt id='1395'> +2.7200418e+11 </wgt>
<wgt id='1396'> +2.7729470e+11 </wgt>
<wgt id='1397'> +2.7747824e+11 </wgt>
<wgt id='1398'> +2.7857764e+11 </wgt>
<wgt id='1399'> +2.7376489e+11 </wgt>
<wgt id='1400'> +2.7253198e+11 </wgt>
<wgt id='1401'> +2.7678476e+11 </wgt>
<wgt id='1402'> +2.7951445e+11 </wgt>
<wgt id='1403'> +2.8262153e+11 </wgt>
<wgt id='1404'> +2.7771225e+11 </wgt>
<wgt id='1405'> +2.8308411e+11 </wgt>
<wgt id='1406'> +2.7813446e+11 </wgt>
<wgt id='1407'> +2.7706514e+11 </wgt>
<wgt id='1408'> +2.8152623e+11 </wgt>
<wgt id='1409'> +2.7320047e+11 </wgt>
<wgt id='1410'> +2.7096325e+11 </wgt>
<wgt id='1411'> +2.7641929e+11 </wgt>
<wgt id='1412'> +2.7497448e+11 </wgt>
<wgt id='1413'> +2.7544830e+11 </wgt>
<wgt id='1414'> +2.7907874e+11 </wgt>
<wgt id='1415'> +2.7988894e+11 </wgt>
<wgt id='1416'> +2.7895840e+11 </wgt>
<wgt id='1417'> +2.7252113e+11 </wgt>
<wgt id='1418'> +2.7700250e+11 </wgt>
<wgt id='1419'> +2.8044872e+11 </wgt>
<wgt id='1420'> +2.7463237e+11 </wgt>
<wgt id='1421'> +2.8288692e+11 </wgt>
<wgt id='1422'> +2.6980478e+11 </wgt>
<wgt id='1423'> +2.8148885e+11 </wgt>
<wgt id='1424'> +2.7781962e+11 </wgt>
<wgt id='1425'> +2.7727816e+11 </wgt>
<wgt id='1426'> +2.7909391e+11 </wgt>
<wgt id='1427'> +2.7614534e+11 </wgt>
<wgt id='1428'> +2.7600212e+11 </wgt>
<wgt id='1429'> +2.7559017e+11 </wgt>
<wgt id='1430'> +2.7271705e+11 </wgt>
<wgt id='1431'> +2.7175365e+11 </wgt>
<wgt id='1432'> +2.7624946e+11 </wgt>
<wgt id='1433'> +2.7500839e+11 </wgt>
<wgt id='1434'> +2.8413118e+11 </wgt>
<wgt id='1435'> +2.7566721e+11 </wgt>
<wgt id='1436'> +2.8046056e+11 </wgt>
<wgt id='1437'> +2.7719243e+11 </wgt>
<wgt id='1438'> +2.7576493e+11 </wgt>
<wgt id='1439'> +2.8016284e+11 </wgt>
<wgt id='1440'> +2.7952621e+11 </wgt>
<wgt id='1441'> +2.7450205e+11 </wgt>
<wgt id='1442'> +2.8195391e+11 </wgt>
<wgt id='1443'> +2.7426843e+11 </wgt>
<wgt id='1444'> +2.7838119e+11 </wgt>
<wgt id='1445'> +2.7794518e+11 </wgt>
<wgt id='1446'> +2.8169951e+11 </wgt>
<wgt id='1447'> +2.7419481e+11 </wgt>
<wgt id='1448'> +2.7914233e+11 </wgt>
<wgt id='1449'> +2.7930119e+11 </wgt>
<wgt id='1450'> +2.7581239e+11 </wgt>
<wgt id='1451'> +2.7800002e+11 </wgt>
<wgt id='1452'> +2.7901106e+11 </wgt>
<wgt id='1453'> +2.7882342e+11 </wgt>
<wgt id='1454'> +2.6904522e+11 </wgt>
<wgt id='1455'> +2.7556568e+11 </wgt>
<wgt id='1456'> +2.7568581e+11 </wgt>
<wgt id='1457'> +2.7571864e+11 </wgt>
<wgt id='1458'> +2.8069117e+11 </wgt>
<wgt id='1459'> +3.0830442e+11 </wgt>
<wgt id='1460'> +3.0342606e+11 </wgt>
<wgt id='1461'> +3.5653149e+11 </wgt>
<wgt id='1462'> +2.9920167e+11 </wgt>
<wgt id='1463'> +2.9943555e+11 </wgt>
<wgt id='1464'> +2.9890172e+11 </wgt>
<wgt id='1465'> +2.9926595e+11 </wgt>
<wgt id='1466'> +2.9914295e+11 </wgt>
<wgt id='1467'> +2.9933898e+11 </wgt>
<wgt id='1468'> +2.9897636e+11 </wgt>
<wgt id='1469'> +2.9876292e+11 </wgt>
<wgt id='1470'> +2.9955800e+11 </wgt>
<wgt id='1471'> +2.9966283e+11 </wgt>
<wgt id='1472'> +2.9872669e+11 </wgt>
<wgt id='1473'> +3.0037186e+11 </wgt>
<wgt id='1474'> +2.9807771e+11 </wgt>
<wgt id='1475'> +3.0031377e+11 </wgt>
<wgt id='1476'> +2.9841326e+11 </wgt>
<wgt id='1477'> +2.9864403e+11 </wgt>
<wgt id='1478'> +3.0050437e+11 </wgt>
<wgt id='1479'> +2.9874919e+11 </wgt>
<wgt id='1480'> +2.9951982e+11 </wgt>
<wgt id='1481'> +2.9872874e+11 </wgt>
<wgt id='1482'> +2.9984031e+11 </wgt>
<wgt id='1483'> +2.9928392e+11 </wgt>
<wgt id='1484'> +2.9908614e+11 </wgt>
<wgt id='1485'> +2.9940937e+11 </wgt>
<wgt id='1486'> +2.9870150e+11 </wgt>
<wgt id='1487'> +2.9947083e+11 </wgt>
<wgt id='1488'> +2.9886492e+11 </wgt>
<wgt id='1489'> +2.9884036e+11 </wgt>
<wgt id='1490'> +3.0018134e+11 </wgt>
<wgt id='1491'> +3.0414387e+11 </wgt>
<wgt id='1492'> +2.9644571e+11 </wgt>
<wgt id='1493'> +2.9563830e+11 </wgt>
<wgt id='1494'> +3.1037471e+11 </wgt>
<wgt id='1495'> +2.9848630e+11 </wgt>
<wgt id='1496'> +2.9996941e+11 </wgt>
<wgt id='1497'> +2.9940178e+11 </wgt>
<wgt id='1498'> +2.9892823e+11 </wgt>
<wgt id='1499'> +3.0115166e+11 </wgt>
<wgt id='1500'> +2.9813577e+11 </wgt>
<wgt id='1501'> +2.9962606e+11 </wgt>
<wgt id='1502'> +2.9807854e+11 </wgt>
<wgt id='1503'> +2.9567382e+11 </wgt>
<wgt id='1504'> +3.0303242e+11 </wgt>
<wgt id='1505'> +3.0008651e+11 </wgt>
<wgt id='1506'> +2.9834076e+11 </wgt>
<wgt id='1507'> +3.0129451e+11 </wgt>
<wgt id='1508'> +2.9668597e+11 </wgt>
<wgt id='1509'> +2.9985672e+11 </wgt>
<wgt id='1510'> +2.9638493e+11 </wgt>
<wgt id='1511'> +3.0037019e+11 </wgt>
<wgt id='1512'> +2.9884760e+11 </wgt>
<wgt id='1513'> +2.9909520e+11 </wgt>
<wgt id='1514'> +2.9932020e+11 </wgt>
<wgt id='1515'> +3.0210771e+11 </wgt>
<wgt id='1516'> +2.9932868e+11 </wgt>
<wgt id='1517'> +2.9877448e+11 </wgt>
<wgt id='1518'> +2.9965578e+11 </wgt>
<wgt id='1519'> +2.9743048e+11 </wgt>
<wgt id='1520'> +3.0045962e+11 </wgt>
<wgt id='1521'> +2.9825549e+11 </wgt>
<wgt id='1522'> +2.9975194e+11 </wgt>
<wgt id='1523'> +3.0046700e+11 </wgt>
<wgt id='1524'> +3.0068974e+11 </wgt>
<wgt id='1525'> +3.0022568e+11 </wgt>
<wgt id='1526'> +3.0026033e+11 </wgt>
<wgt id='1527'> +2.9920167e+11 </wgt>
<wgt id='1528'> +2.9867582e+11 </wgt>
<wgt id='1529'> +2.9929190e+11 </wgt>
<wgt id='1530'> +2.9542400e+11 </wgt>
<wgt id='1531'> +2.9851486e+11 </wgt>
<wgt id='1532'> +2.9666968e+11 </wgt>
<wgt id='1533'> +2.9360945e+11 </wgt>
<wgt id='1534'> +2.9696655e+11 </wgt>
<wgt id='1535'> +3.0119007e+11 </wgt>
<wgt id='1536'> +2.9574809e+11 </wgt>
<wgt id='1537'> +2.9893382e+11 </wgt>
<wgt id='1538'> +2.9515141e+11 </wgt>
<wgt id='1539'> +3.0412474e+11 </wgt>
<wgt id='1540'> +2.9846518e+11 </wgt>
<wgt id='1541'> +2.9946364e+11 </wgt>
<wgt id='1542'> +2.9854157e+11 </wgt>
<wgt id='1543'> +2.9990719e+11 </wgt>
<wgt id='1544'> +2.9669601e+11 </wgt>
<wgt id='1545'> +2.9650270e+11 </wgt>
<wgt id='1546'> +2.9460356e+11 </wgt>
<wgt id='1547'> +3.0083325e+11 </wgt>
<wgt id='1548'> +2.9684605e+11 </wgt>
<wgt id='1549'> +2.9503563e+11 </wgt>
<wgt id='1550'> +2.9976875e+11 </wgt>
<wgt id='1551'> +2.9910963e+11 </wgt>
<wgt id='1552'> +2.9820740e+11 </wgt>
<wgt id='1553'> +3.0133679e+11 </wgt>
<wgt id='1554'> +2.9848291e+11 </wgt>
<wgt id='1555'> +2.9928011e+11 </wgt>
<wgt id='1556'> +3.0079701e+11 </wgt>
<wgt id='1557'> +2.9770350e+11 </wgt>
<wgt id='1558'> +2.9870722e+11 </wgt>
<wgt id='1559'> +2.9616577e+11 </wgt>
<wgt id='1560'> +2.9725045e+11 </wgt>
<wgt id='1561'> +2.9552614e+11 </wgt>
<wgt id='1562'> +2.9708026e+11 </wgt>
<wgt id='1563'> +2.9864001e+11 </wgt>
<wgt id='1564'> +2.9810927e+11 </wgt>
<wgt id='1565'> +3.0077935e+11 </wgt>
<wgt id='1566'> +2.9852112e+11 </wgt>
<wgt id='1567'> +3.0143195e+11 </wgt>
<wgt id='1568'> +2.9841722e+11 </wgt>
<wgt id='1569'> +2.9808330e+11 </wgt>
<wgt id='1570'> +3.0485837e+11 </wgt>
<wgt id='1571'> +2.9843747e+11 </wgt>
<wgt id='1572'> +3.0054433e+11 </wgt>
<wgt id='1573'> +3.0199629e+11 </wgt>
<wgt id='1574'> +2.5882266e+11 </wgt>
<wgt id='1575'> +2.5889204e+11 </wgt>
<wgt id='1576'> +2.5875476e+11 </wgt>
<wgt id='1577'> +2.5884072e+11 </wgt>
<wgt id='1578'> +2.5941973e+11 </wgt>
<wgt id='1579'> +2.5965584e+11 </wgt>
<wgt id='1580'> +2.5942475e+11 </wgt>
<wgt id='1581'> +2.5826587e+11 </wgt>
<wgt id='1582'> +2.5797798e+11 </wgt>
<wgt id='1583'> +2.5837727e+11 </wgt>
<wgt id='1584'> +2.5939181e+11 </wgt>
<wgt id='1585'> +2.5903576e+11 </wgt>
<wgt id='1586'> +2.5790299e+11 </wgt>
<wgt id='1587'> +2.5810787e+11 </wgt>
<wgt id='1588'> +2.5763463e+11 </wgt>
<wgt id='1589'> +2.5854207e+11 </wgt>
<wgt id='1590'> +2.5865427e+11 </wgt>
<wgt id='1591'> +2.5889667e+11 </wgt>
<wgt id='1592'> +2.5781699e+11 </wgt>
<wgt id='1593'> +2.5785205e+11 </wgt>
<wgt id='1594'> +2.5975000e+11 </wgt>
<wgt id='1595'> +2.5644832e+11 </wgt>
<wgt id='1596'> +2.6271896e+11 </wgt>
<wgt id='1597'> +2.6059968e+11 </wgt>
<wgt id='1598'> +2.6077870e+11 </wgt>
<wgt id='1599'> +2.5595226e+11 </wgt>
<wgt id='1600'> +2.6347823e+11 </wgt>
<wgt id='1601'> +2.6097272e+11 </wgt>
<wgt id='1602'> +2.5886639e+11 </wgt>
<wgt id='1603'> +2.7089297e+11 </wgt>
<wgt id='1604'> +2.5896655e+11 </wgt>
</rwgt>
</event>
<event>
 9      1 +2.8343000e+11 1.39999900e+03 7.81738600e-03 7.88881200e-02
       21 -1    0    0  504  503 +0.0000000000e+00 +0.0000000000e+00 +1.1936390622e+03 1.1936390622e+03 0.0000000000e+00 0.0000e+00 -1.0000e+00
       21 -1    0    0  503  504 -0.0000000000e+00 -0.0000000000e+00 -4.1050880189e+02 4.1050880189e+02 0.0000000000e+00 0.0000e+00 -1.0000e+00
       45  2    1    2    0    0 -3.5527136788e-15 +0.0000000000e+00 +7.8313026032e+02 1.6041478641e+03 1.3999990590e+03 0.0000e+00 0.0000e+00
       25  2    3    3    0    0 +2.8741884689e+01 +4.7422883508e+02 +9.6875084176e+02 1.0861959434e+03 1.2499740004e+02 0.0000e+00 0.0000e+00
       35  2    3    3    0    0 -2.8741884689e+01 -4.7422883508e+02 -1.8562058144e+02 5.1795192073e+02 9.0000599860e+01 0.0000e+00 0.0000e+00
        5  1    5    5  501    0 -1.3237127675e+01 -2.8202286580e+02 -6.2718510024e+01 2.8924641342e+02 4.2140000000e+00 0.0000e+00 1.0000e+00
       -5  1    5    5    0  501 -1.5504757014e+01 -1.9220596928e+02 -1.2290207142e+02 2.2870550731e+02 4.2140000000e+00 0.0000e+00 1.0000e+00
        5  1    4    4  502    0 -1.1958082537e+01 +2.0225949279e+02 +5.4042103072e+02 5.7716942608e+02 4.2140000000e+00 0.0000e+00 1.0000e+00
       -5  1    4    4    0  502 +4.0699967226e+01 +2.7196934229e+02 +4.2832981104e+02 5.0902651728e+02 4.2140000000e+00 0.0000e+00 1.0000e+00
<mgrwt>
<rscale>  0 0.13999991E+04</rscale>
<asrwt>0</asrwt>
<pdfrwt beam="1">  1       21 0.18363678E+00 0.13999991E+04</pdfrwt>
<pdfrwt beam="2">  1       21 0.63155201E-01 0.13999991E+04</pdfrwt>
<totfact> 0.27918674E+02</totfact>
</mgrwt>
<rwgt>
<wgt id='1001'> +2.8343000e+11 </wgt>
<wgt id='1002'> +3.0217957e+11 </wgt>
<wgt id='1003'> +3.0217546e+11 </wgt>
<wgt id='1004'> +3.4125153e+11 </wgt>
<wgt id='1005'> +2.8343000e+11 </wgt>
<wgt id='1006'> +2.8343000e+11 </wgt>
<wgt id='1007'> +3.0217957e+11 </wgt>
<wgt id='1008'> +3.0217546e+11 </wgt>
<wgt id='1009'> +3.4125153e+11 </wgt>
<wgt id='1010'> +2.8343000e+11 </wgt>
<wgt id='1011'> +2.8343000e+11 </wgt>
<wgt id='1012'> +3.0217957e+11 </wgt>
<wgt id='1013'> +3.0217546e+11 </wgt>
<wgt id='1014'> +3.4125153e+11 </wgt>
<wgt id='1015'> +2.8343000e+11 </wgt>
<wgt id='1016'> +2.5393834e+11 </wgt>
<wgt id='1017'> +2.6968140e+11 </wgt>
<wgt id='1018'> +2.6967797e+11 </wgt>
<wgt id='1019'> +3.0217546e+11 </wgt>
<wgt id='1020'> +2.5393834e+11 </wgt>
<wgt id='1021'> +2.5393834e+11 </wgt>
<wgt id='1022'> +2.6968140e+11 </wgt>
<wgt id='1023'> +2.6967797e+11 </wgt>
<wgt id='1024'> +3.0217546e+11 </wgt>
<wgt id='1025'> +2.5393834e+11 </wgt>
<wgt id='1026'> +2.5393834e+11 </wgt>
<wgt id='1027'> +2.6968140e+11 </wgt>
<wgt id='1028'> +2.6967797e+11 </wgt>
<wgt id='1029'> +3.0217546e+11 </wgt>
<wgt id='1030'> +2.5393834e+11 </wgt>
<wgt id='1031'> +3.1867926e+11 </wgt>
<wgt id='1032'> +3.4125647e+11 </wgt>
<wgt id='1033'> +3.4125153e+11 </wgt>
<wgt id='1034'> +3.8874740e+11 </wgt>
<wgt id='1035'> +3.1867926e+11 </wgt>
<wgt id='1036'> +3.1867926e+11 </wgt>
<wgt id='1037'> +3.4125647e+11 </wgt>
<wgt id='1038'> +3.4125153e+11 </wgt>
<wgt id='1039'> +3.8874740e+11 </wgt>
<wgt id='1040'> +3.1867926e+11 </wgt>
<wgt id='1041'> +3.1867926e+11 </wgt>
<wgt id='1042'> +3.4125647e+11 </wgt>
<wgt id='1043'> +3.4125153e+11 </wgt>
<wgt id='1044'> +3.8874740e+11 </wgt>
<wgt id='1045'> +3.1867926e+11 </wgt>
<wgt id='1046'> +2.8343000e+11 </wgt>
<wgt id='1047'> +2.8343000e+11 </wgt>
<wgt id='1048'> +2.8343000e+11 </wgt>
<wgt id='1049'> +2.8288202e+11 </wgt>
<wgt id='1050'> +2.8323161e+11 </wgt>
<wgt id='1051'> +2.8327873e+11 </wgt>
<wgt id='1052'> +2.8431404e+11 </wgt>
<wgt id='1053'> +2.8165770e+11 </wgt>
<wgt id='1054'> +2.8372309e+11 </wgt>
<wgt id='1055'> +2.8220028e+11 </wgt>
<wgt id='1056'> +2.8215784e+11 </wgt>
<wgt id='1057'> +2.8331176e+11 </wgt>
<wgt id='1058'> +2.8276995e+11 </wgt>
<wgt id='1059'> +2.8527982e+11 </wgt>
<wgt id='1060'> +2.8379566e+11 </wgt>
<wgt id='1061'> +2.8395071e+11 </wgt>
<wgt id='1062'> +2.8429663e+11 </wgt>
<wgt id='1063'> +2.8456693e+11 </wgt>
<wgt id='1064'> +2.8406093e+11 </wgt>
<wgt id='1065'> +2.8468545e+11 </wgt>
<wgt id='1066'> +2.8132137e+11 </wgt>
<wgt id='1067'> +2.8189865e+11 </wgt>
<wgt id='1068'> +2.8345755e+11 </wgt>
<wgt id='1069'> +2.8257409e+11 </wgt>
<wgt id='1070'> +2.8398265e+11 </wgt>
<wgt id='1071'> +2.8296204e+11 </wgt>
<wgt id='1072'> +2.8265196e+11 </wgt>
<wgt id='1073'> +2.8305277e+11 </wgt>
<wgt id='1074'> +2.8300419e+11 </wgt>
<wgt id='1075'> +2.8433373e+11 </wgt>
<wgt id='1076'> +2.8151332e+11 </wgt>
<wgt id='1077'> +2.8202879e+11 </wgt>
<wgt id='1078'> +2.8413764e+11 </wgt>
<wgt id='1079'> +2.8219180e+11 </wgt>
<wgt id='1080'> +2.8317521e+11 </wgt>
<wgt id='1081'> +2.8295125e+11 </wgt>
<wgt id='1082'> +2.8221081e+11 </wgt>
<wgt id='1083'> +2.8410771e+11 </wgt>
<wgt id='1084'> +2.8394085e+11 </wgt>
<wgt id='1085'> +2.8273907e+11 </wgt>
<wgt id='1086'> +2.8319870e+11 </wgt>
<wgt id='1087'> +2.8326091e+11 </wgt>
<wgt id='1088'> +2.8296821e+11 </wgt>
<wgt id='1089'> +2.8255406e+11 </wgt>
<wgt id='1090'> +2.8404732e+11 </wgt>
<wgt id='1091'> +2.8354627e+11 </wgt>
<wgt id='1092'> +2.8371498e+11 </wgt>
<wgt id='1093'> +2.8344655e+11 </wgt>
<wgt id='1094'> +2.8254171e+11 </wgt>
<wgt id='1095'> +2.8363981e+11 </wgt>
<wgt id='1096'> +2.8343016e+11 </wgt>
<wgt id='1097'> +2.8292347e+11 </wgt>
<wgt id='1098'> +2.8315001e+11 </wgt>
<wgt id='1099'> +2.8321178e+11 </wgt>
<wgt id='1100'> +2.8405758e+11 </wgt>
<wgt id='1101'> +2.8350661e+11 </wgt>
<wgt id='1102'> +2.8333671e+11 </wgt>
<wgt id='1103'> +2.8286243e+11 </wgt>
<wgt id='1104'> +2.8321408e+11 </wgt>
<wgt id='1105'> +2.8351990e+11 </wgt>
<wgt id='1106'> +2.8376397e+11 </wgt>
<wgt id='1107'> +2.8354899e+11 </wgt>
<wgt id='1108'> +2.8323437e+11 </wgt>
<wgt id='1109'> +2.8324915e+11 </wgt>
<wgt id='1110'> +2.8369561e+11 </wgt>
<wgt id='1111'> +2.8362002e+11 </wgt>
<wgt id='1112'> +2.8337326e+11 </wgt>
<wgt id='1113'> +2.8376911e+11 </wgt>
<wgt id='1114'> +2.8313981e+11 </wgt>
<wgt id='1115'> +2.8308190e+11 </wgt>
<wgt id='1116'> +2.8397745e+11 </wgt>
<wgt id='1117'> +2.8335843e+11 </wgt>
<wgt id='1118'> +2.8366544e+11 </wgt>
<wgt id='1119'> +2.8309882e+11 </wgt>
<wgt id='1120'> +2.8315964e+11 </wgt>
<wgt id='1121'> +2.8351330e+11 </wgt>
<wgt id='1122'> +2.8313864e+11 </wgt>
<wgt id='1123'> +2.8337865e+11 </wgt>
<wgt id='1124'> +2.8343311e+11 </wgt>
<wgt id='1125'> +2.8362203e+11 </wgt>
<wgt id='1126'> +2.8354773e+11 </wgt>
<wgt id='1127'> +2.8328389e+11 </wgt>
<wgt id='1128'> +2.8340963e+11 </wgt>
<wgt id='1129'> +2.8330498e+11 </wgt>
<wgt id='1130'> +2.8345971e+11 </wgt>
<wgt id='1131'> +2.8387311e+11 </wgt>
<wgt id='1132'> +2.8333821e+11 </wgt>
<wgt id='1133'> +2.8355308e+11 </wgt>
<wgt id='1134'> +2.8341579e+11 </wgt>
<wgt id='1135'> +2.8346508e+11 </wgt>
<wgt id='1136'> +2.8334786e+11 </wgt>
<wgt id='1137'> +2.8323334e+11 </wgt>
<wgt id='1138'> +2.8357069e+11 </wgt>
<wgt id='1139'> +2.8350406e+11 </wgt>
<wgt id='1140'> +2.8368274e+11 </wgt>
<wgt id='1141'> +2.8321872e+11 </wgt>
<wgt id='1142'> +2.8348099e+11 </wgt>
<wgt id='1143'> +2.8361410e+11 </wgt>
<wgt id='1144'> +2.8332767e+11 </wgt>
<wgt id='1145'> +2.8357646e+11 </wgt>
<wgt id='1146'> +2.8347151e+11 </wgt>
<wgt id='1147'> +2.8348704e+11 </wgt>
<wgt id='1148'> +2.8343000e+11 </wgt>
<wgt id='1149'> +2.8343000e+11 </wgt>
<wgt id='1150'> +2.9729726e+11 </wgt>
<wgt id='1151'> +2.7711705e+11 </wgt>
<wgt id='1152'> +2.7610674e+11 </wgt>
<wgt id='1153'> +2.8584533e+11 </wgt>
<wgt id='1154'> +2.8170157e+11 </wgt>
<wgt id='1155'> +2.9372170e+11 </wgt>
<wgt id='1156'> +2.7807200e+11 </wgt>
<wgt id='1157'> +2.7464265e+11 </wgt>
<wgt id='1158'> +2.7702463e+11 </wgt>
<wgt id='1159'> +2.9985941e+11 </wgt>
<wgt id='1160'> +2.8540497e+11 </wgt>
<wgt id='1161'> +2.8862185e+11 </wgt>
<wgt id='1162'> +2.8520719e+11 </wgt>
<wgt id='1163'> +2.8645296e+11 </wgt>
<wgt id='1164'> +2.7342009e+11 </wgt>
<wgt id='1165'> +2.7812522e+11 </wgt>
<wgt id='1166'> +2.8314348e+11 </wgt>
<wgt id='1167'> +2.7798702e+11 </wgt>
<wgt id='1168'> +2.7421660e+11 </wgt>
<wgt id='1169'> +2.7593854e+11 </wgt>
<wgt id='1170'> +2.8416482e+11 </wgt>
<wgt id='1171'> +2.7304139e+11 </wgt>
<wgt id='1172'> +2.7448155e+11 </wgt>
<wgt id='1173'> +2.8548547e+11 </wgt>
<wgt id='1174'> +2.7678430e+11 </wgt>
<wgt id='1175'> +2.7843519e+11 </wgt>
<wgt id='1176'> +2.8689023e+11 </wgt>
<wgt id='1177'> +2.7821570e+11 </wgt>
<wgt id='1178'> +2.8424357e+11 </wgt>
<wgt id='1179'> +2.8397332e+11 </wgt>
<wgt id='1180'> +2.8602903e+11 </wgt>
<wgt id='1181'> +2.9062351e+11 </wgt>
<wgt id='1182'> +2.8013052e+11 </wgt>
<wgt id='1183'> +2.8952647e+11 </wgt>
<wgt id='1184'> +2.8176393e+11 </wgt>
<wgt id='1185'> +2.8811927e+11 </wgt>
<wgt id='1186'> +2.7760123e+11 </wgt>
<wgt id='1187'> +2.8437004e+11 </wgt>
<wgt id='1188'> +2.8845059e+11 </wgt>
<wgt id='1189'> +2.8183373e+11 </wgt>
<wgt id='1190'> +2.8072131e+11 </wgt>
<wgt id='1191'> +2.9044322e+11 </wgt>
<wgt id='1192'> +2.8840149e+11 </wgt>
<wgt id='1193'> +2.9039853e+11 </wgt>
<wgt id='1194'> +2.7995043e+11 </wgt>
<wgt id='1195'> +2.8511721e+11 </wgt>
<wgt id='1196'> +2.9142152e+11 </wgt>
<wgt id='1197'> +2.9082968e+11 </wgt>
<wgt id='1198'> +2.8549674e+11 </wgt>
<wgt id='1199'> +2.8793038e+11 </wgt>
<wgt id='1200'> +2.8835818e+11 </wgt>
<wgt id='1201'> +2.8098043e+11 </wgt>
<wgt id='1202'> +2.8604807e+11 </wgt>
<wgt id='1203'> +2.8236086e+11 </wgt>
<wgt id='1204'> +2.8192220e+11 </wgt>
<wgt id='1205'> +2.8393124e+11 </wgt>
<wgt id='1206'> +2.8006552e+11 </wgt>
<wgt id='1207'> +2.9111975e+11 </wgt>
<wgt id='1208'> +2.7062507e+11 </wgt>
<wgt id='1209'> +2.8385706e+11 </wgt>
<wgt id='1210'> +2.8644478e+11 </wgt>
<wgt id='1211'> +2.8353429e+11 </wgt>
<wgt id='1212'> +2.8306870e+11 </wgt>
<wgt id='1213'> +2.8817984e+11 </wgt>
<wgt id='1214'> +2.7800273e+11 </wgt>
<wgt id='1215'> +2.8295323e+11 </wgt>
<wgt id='1216'> +2.8003392e+11 </wgt>
<wgt id='1217'> +2.7867493e+11 </wgt>
<wgt id='1218'> +2.8498397e+11 </wgt>
<wgt id='1219'> +2.9356777e+11 </wgt>
<wgt id='1220'> +2.7999533e+11 </wgt>
<wgt id='1221'> +2.7685498e+11 </wgt>
<wgt id='1222'> +2.7864186e+11 </wgt>
<wgt id='1223'> +2.7345125e+11 </wgt>
<wgt id='1224'> +2.8259481e+11 </wgt>
<wgt id='1225'> +2.8652899e+11 </wgt>
<wgt id='1226'> +2.8619024e+11 </wgt>
<wgt id='1227'> +2.8033131e+11 </wgt>
<wgt id='1228'> +2.8234448e+11 </wgt>
<wgt id='1229'> +3.0068032e+11 </wgt>
<wgt id='1230'> +2.8924268e+11 </wgt>
<wgt id='1231'> +2.7812522e+11 </wgt>
<wgt id='1232'> +2.8737233e+11 </wgt>
<wgt id='1233'> +2.7639324e+11 </wgt>
<wgt id='1234'> +2.7791675e+11 </wgt>
<wgt id='1235'> +2.9972797e+11 </wgt>
<wgt id='1236'> +2.7803429e+11 </wgt>
<wgt id='1237'> +2.8946855e+11 </wgt>
<wgt id='1238'> +2.8144105e+11 </wgt>
<wgt id='1239'> +2.8625274e+11 </wgt>
<wgt id='1240'> +2.7749747e+11 </wgt>
<wgt id='1241'> +2.8657447e+11 </wgt>
<wgt id='1242'> +2.8015821e+11 </wgt>
<wgt id='1243'> +2.8515680e+11 </wgt>
<wgt id='1244'> +2.8822671e+11 </wgt>
<wgt id='1245'> +2.7785625e+11 </wgt>
<wgt id='1246'> +3.0433094e+11 </wgt>
<wgt id='1247'> +2.8141316e+11 </wgt>
<wgt id='1248'> +2.7321292e+11 </wgt>
<wgt id='1249'> +2.7562230e+11 </wgt>
<wgt id='1250'> +2.9336168e+11 </wgt>
<wgt id='1251'> +3.0105751e+11 </wgt>
<wgt id='1252'> +2.8790994e+11 </wgt>
<wgt id='1253'> +2.9054913e+11 </wgt>
<wgt id='1254'> +2.8903198e+11 </wgt>
<wgt id='1255'> +3.0240364e+11 </wgt>
<wgt id='1256'> +3.0259032e+11 </wgt>
<wgt id='1257'> +2.9890808e+11 </wgt>
<wgt id='1258'> +2.9339206e+11 </wgt>
<wgt id='1259'> +3.0232979e+11 </wgt>
<wgt id='1260'> +3.2714829e+11 </wgt>
<wgt id='1261'> +3.1441994e+11 </wgt>
<wgt id='1262'> +2.9327515e+11 </wgt>
<wgt id='1263'> +2.9882382e+11 </wgt>
<wgt id='1264'> +3.0179460e+11 </wgt>
<wgt id='1265'> +2.9426507e+11 </wgt>
<wgt id='1266'> +3.0279072e+11 </wgt>
<wgt id='1267'> +3.4146231e+11 </wgt>
<wgt id='1268'> +2.8971262e+11 </wgt>
<wgt id='1269'> +2.8663302e+11 </wgt>
<wgt id='1270'> +3.0257763e+11 </wgt>
<wgt id='1271'> +2.6850921e+11 </wgt>
<wgt id='1272'> +2.9307665e+11 </wgt>
<wgt id='1273'> +2.9059429e+11 </wgt>
<wgt id='1274'> +2.8641175e+11 </wgt>
<wgt id='1275'> +2.9438070e+11 </wgt>
<wgt id='1276'> +3.0167005e+11 </wgt>
<wgt id='1277'> +2.9674667e+11 </wgt>
<wgt id='1278'> +2.9753359e+11 </wgt>
<wgt id='1279'> +2.7950714e+11 </wgt>
<wgt id='1280'> +2.8628900e+11 </wgt>
<wgt id='1281'> +2.8489390e+11 </wgt>
<wgt id='1282'> +2.9511228e+11 </wgt>
<wgt id='1283'> +3.0753474e+11 </wgt>
<wgt id='1284'> +3.0931676e+11 </wgt>
<wgt id='1285'> +3.0795062e+11 </wgt>
<wgt id='1286'> +3.2987851e+11 </wgt>
<wgt id='1287'> +3.0781836e+11 </wgt>
<wgt id='1288'> +3.3265720e+11 </wgt>
<wgt id='1289'> +3.1423705e+11 </wgt>
<wgt id='1290'> +3.1226701e+11 </wgt>
<wgt id='1291'> +2.7816557e+11 </wgt>
<wgt id='1292'> +3.0204697e+11 </wgt>
<wgt id='1293'> +3.0274421e+11 </wgt>
<wgt id='1294'> +3.2183800e+11 </wgt>
<wgt id='1295'> +3.0863392e+11 </wgt>
<wgt id='1296'> +3.2677626e+11 </wgt>
<wgt id='1297'> +2.9129071e+11 </wgt>
<wgt id='1298'> +2.8837399e+11 </wgt>
<wgt id='1299'> +3.0315539e+11 </wgt>
<wgt id='1300'> +2.8448435e+11 </wgt>
<wgt id='1301'> +2.7925309e+11 </wgt>
<wgt id='1302'> +2.8192825e+11 </wgt>
<wgt id='1303'> +3.0248759e+11 </wgt>
<wgt id='1304'> +3.2245042e+11 </wgt>
<wgt id='1305'> +2.9826243e+11 </wgt>
<wgt id='1306'> +3.0580401e+11 </wgt>
<wgt id='1307'> +2.9049047e+11 </wgt>
<wgt id='1308'> +3.2974491e+11 </wgt>
<wgt id='1309'> +2.9977724e+11 </wgt>
<wgt id='1310'> +3.0305054e+11 </wgt>
<wgt id='1311'> +2.9976108e+11 </wgt>
<wgt id='1312'> +3.1073885e+11 </wgt>
<wgt id='1313'> +3.0242538e+11 </wgt>
<wgt id='1314'> +2.9559313e+11 </wgt>
<wgt id='1315'> +2.8719465e+11 </wgt>
<wgt id='1316'> +2.9957588e+11 </wgt>
<wgt id='1317'> +3.0975580e+11 </wgt>
<wgt id='1318'> +2.9090730e+11 </wgt>
<wgt id='1319'> +2.9763548e+11 </wgt>
<wgt id='1320'> +3.1592871e+11 </wgt>
<wgt id='1321'> +3.0032872e+11 </wgt>
<wgt id='1322'> +3.0745898e+11 </wgt>
<wgt id='1323'> +2.9080700e+11 </wgt>
<wgt id='1324'> +3.0669592e+11 </wgt>
<wgt id='1325'> +3.1227564e+11 </wgt>
<wgt id='1326'> +3.0827825e+11 </wgt>
<wgt id='1327'> +3.0996970e+11 </wgt>
<wgt id='1328'> +2.9780748e+11 </wgt>
<wgt id='1329'> +2.9773979e+11 </wgt>
<wgt id='1330'> +2.8584214e+11 </wgt>
<wgt id='1331'> +3.2224560e+11 </wgt>
<wgt id='1332'> +2.9523284e+11 </wgt>
<wgt id='1333'> +3.0186066e+11 </wgt>
<wgt id='1334'> +3.1680805e+11 </wgt>
<wgt id='1335'> +2.9245922e+11 </wgt>
<wgt id='1336'> +3.1370868e+11 </wgt>
<wgt id='1337'> +3.0889874e+11 </wgt>
<wgt id='1338'> +2.8759839e+11 </wgt>
<wgt id='1339'> +3.1560138e+11 </wgt>
<wgt id='1340'> +3.0714268e+11 </wgt>
<wgt id='1341'> +3.1989179e+11 </wgt>
<wgt id='1342'> +3.0460068e+11 </wgt>
<wgt id='1343'> +3.0887971e+11 </wgt>
<wgt id='1344'> +3.1487589e+11 </wgt>
<wgt id='1345'> +2.6612267e+11 </wgt>
<wgt id='1346'> +3.0362014e+11 </wgt>
<wgt id='1347'> +2.9156016e+11 </wgt>
<wgt id='1348'> +2.8992360e+11 </wgt>
<wgt id='1349'> +2.8746634e+11 </wgt>
<wgt id='1350'> +3.0749905e+11 </wgt>
<wgt id='1351'> +2.9193373e+11 </wgt>
<wgt id='1352'> +3.0321546e+11 </wgt>
<wgt id='1353'> +3.0012134e+11 </wgt>
<wgt id='1354'> +3.0929368e+11 </wgt>
<wgt id='1355'> +2.7768785e+11 </wgt>
<wgt id='1356'> +2.8032325e+11 </wgt>
<wgt id='1357'> +2.7808280e+11 </wgt>
<wgt id='1358'> +2.7596492e+11 </wgt>
<wgt id='1359'> +2.7722349e+11 </wgt>
<wgt id='1360'> +2.7263115e+11 </wgt>
<wgt id='1361'> +2.7660664e+11 </wgt>
<wgt id='1362'> +2.8434331e+11 </wgt>
<wgt id='1363'> +2.7497200e+11 </wgt>
<wgt id='1364'> +2.8274035e+11 </wgt>
<wgt id='1365'> +2.7555339e+11 </wgt>
<wgt id='1366'> +2.7450892e+11 </wgt>
<wgt id='1367'> +2.7765959e+11 </wgt>
<wgt id='1368'> +2.7816703e+11 </wgt>
<wgt id='1369'> +2.8084775e+11 </wgt>
<wgt id='1370'> +2.7488553e+11 </wgt>
<wgt id='1371'> +2.7785070e+11 </wgt>
<wgt id='1372'> +2.7958631e+11 </wgt>
<wgt id='1373'> +2.8091854e+11 </wgt>
<wgt id='1374'> +2.7039663e+11 </wgt>
<wgt id='1375'> +2.7859422e+11 </wgt>
<wgt id='1376'> +2.7701745e+11 </wgt>
<wgt id='1377'> +2.7824730e+11 </wgt>
<wgt id='1378'> +2.7699429e+11 </wgt>
<wgt id='1379'> +2.7614807e+11 </wgt>
<wgt id='1380'> +2.7523987e+11 </wgt>
<wgt id='1381'> +2.8233047e+11 </wgt>
<wgt id='1382'> +2.7663038e+11 </wgt>
<wgt id='1383'> +2.7547906e+11 </wgt>
<wgt id='1384'> +2.7405169e+11 </wgt>
<wgt id='1385'> +2.7352872e+11 </wgt>
<wgt id='1386'> +2.7646194e+11 </wgt>
<wgt id='1387'> +2.7593712e+11 </wgt>
<wgt id='1388'> +2.7307853e+11 </wgt>
<wgt id='1389'> +2.7654359e+11 </wgt>
<wgt id='1390'> +2.7950553e+11 </wgt>
<wgt id='1391'> +2.7615100e+11 </wgt>
<wgt id='1392'> +2.7447897e+11 </wgt>
<wgt id='1393'> +2.7816137e+11 </wgt>
<wgt id='1394'> +2.7637127e+11 </wgt>
<wgt id='1395'> +2.7281621e+11 </wgt>
<wgt id='1396'> +2.7815392e+11 </wgt>
<wgt id='1397'> +2.7842040e+11 </wgt>
<wgt id='1398'> +2.8029181e+11 </wgt>
<wgt id='1399'> +2.7523648e+11 </wgt>
<wgt id='1400'> +2.7304580e+11 </wgt>
<wgt id='1401'> +2.7820899e+11 </wgt>
<wgt id='1402'> +2.8032863e+11 </wgt>
<wgt id='1403'> +2.8480428e+11 </wgt>
<wgt id='1404'> +2.7981851e+11 </wgt>
<wgt id='1405'> +2.8436632e+11 </wgt>
<wgt id='1406'> +2.7987539e+11 </wgt>
<wgt id='1407'> +2.7811488e+11 </wgt>
<wgt id='1408'> +2.8339439e+11 </wgt>
<wgt id='1409'> +2.7358532e+11 </wgt>
<wgt id='1410'> +2.7096426e+11 </wgt>
<wgt id='1411'> +2.7741737e+11 </wgt>
<wgt id='1412'> +2.7610231e+11 </wgt>
<wgt id='1413'> +2.7775243e+11 </wgt>
<wgt id='1414'> +2.8017451e+11 </wgt>
<wgt id='1415'> +2.7959522e+11 </wgt>
<wgt id='1416'> +2.7953976e+11 </wgt>
<wgt id='1417'> +2.7436594e+11 </wgt>
<wgt id='1418'> +2.7745915e+11 </wgt>
<wgt id='1419'> +2.8136091e+11 </wgt>
<wgt id='1420'> +2.7471102e+11 </wgt>
<wgt id='1421'> +2.8402941e+11 </wgt>
<wgt id='1422'> +2.7083776e+11 </wgt>
<wgt id='1423'> +2.8219353e+11 </wgt>
<wgt id='1424'> +2.7864148e+11 </wgt>
<wgt id='1425'> +2.7826573e+11 </wgt>
<wgt id='1426'> +2.7988682e+11 </wgt>
<wgt id='1427'> +2.7682421e+11 </wgt>
<wgt id='1428'> +2.7666966e+11 </wgt>
<wgt id='1429'> +2.7749307e+11 </wgt>
<wgt id='1430'> +2.7396617e+11 </wgt>
<wgt id='1431'> +2.7302660e+11 </wgt>
<wgt id='1432'> +2.7616839e+11 </wgt>
<wgt id='1433'> +2.7494687e+11 </wgt>
<wgt id='1434'> +2.8512607e+11 </wgt>
<wgt id='1435'> +2.7670748e+11 </wgt>
<wgt id='1436'> +2.8148272e+11 </wgt>
<wgt id='1437'> +2.7740637e+11 </wgt>
<wgt id='1438'> +2.7706440e+11 </wgt>
<wgt id='1439'> +2.8229296e+11 </wgt>
<wgt id='1440'> +2.7978176e+11 </wgt>
<wgt id='1441'> +2.7476748e+11 </wgt>
<wgt id='1442'> +2.8201024e+11 </wgt>
<wgt id='1443'> +2.7490097e+11 </wgt>
<wgt id='1444'> +2.8083453e+11 </wgt>
<wgt id='1445'> +2.7822311e+11 </wgt>
<wgt id='1446'> +2.8384135e+11 </wgt>
<wgt id='1447'> +2.7587260e+11 </wgt>
<wgt id='1448'> +2.8018351e+11 </wgt>
<wgt id='1449'> +2.8058638e+11 </wgt>
<wgt id='1450'> +2.7700427e+11 </wgt>
<wgt id='1451'> +2.7876013e+11 </wgt>
<wgt id='1452'> +2.7984221e+11 </wgt>
<wgt id='1453'> +2.7919524e+11 </wgt>
<wgt id='1454'> +2.6961988e+11 </wgt>
<wgt id='1455'> +2.7638873e+11 </wgt>
<wgt id='1456'> +2.7651989e+11 </wgt>
<wgt id='1457'> +2.7688135e+11 </wgt>
<wgt id='1458'> +2.8254929e+11 </wgt>
<wgt id='1459'> +3.1001753e+11 </wgt>
<wgt id='1460'> +3.0502746e+11 </wgt>
<wgt id='1461'> +3.6052818e+11 </wgt>
<wgt id='1462'> +2.9955310e+11 </wgt>
<wgt id='1463'> +2.9978180e+11 </wgt>
<wgt id='1464'> +2.9925978e+11 </wgt>
<wgt id='1465'> +2.9961849e+11 </wgt>
<wgt id='1466'> +2.9949337e+11 </wgt>
<wgt id='1467'> +2.9968166e+11 </wgt>
<wgt id='1468'> +2.9934214e+11 </wgt>
<wgt id='1469'> +2.9911766e+11 </wgt>
<wgt id='1470'> +2.9990674e+11 </wgt>
<wgt id='1471'> +3.0000897e+11 </wgt>
<wgt id='1472'> +2.9908354e+11 </wgt>
<wgt id='1473'> +3.0073229e+11 </wgt>
<wgt id='1474'> +2.9842049e+11 </wgt>
<wgt id='1475'> +3.0067242e+11 </wgt>
<wgt id='1476'> +2.9875960e+11 </wgt>
<wgt id='1477'> +2.9900036e+11 </wgt>
<wgt id='1478'> +3.0084442e+11 </wgt>
<wgt id='1479'> +2.9914648e+11 </wgt>
<wgt id='1480'> +2.9984015e+11 </wgt>
<wgt id='1481'> +2.9905417e+11 </wgt>
<wgt id='1482'> +3.0022726e+11 </wgt>
<wgt id='1483'> +2.9962776e+11 </wgt>
<wgt id='1484'> +2.9944911e+11 </wgt>
<wgt id='1485'> +2.9976244e+11 </wgt>
<wgt id='1486'> +2.9904895e+11 </wgt>
<wgt id='1487'> +2.9982917e+11 </wgt>
<wgt id='1488'> +2.9920818e+11 </wgt>
<wgt id='1489'> +2.9918710e+11 </wgt>
<wgt id='1490'> +3.0054559e+11 </wgt>
<wgt id='1491'> +3.0451971e+11 </wgt>
<wgt id='1492'> +2.9678448e+11 </wgt>
<wgt id='1493'> +2.9595580e+11 </wgt>
<wgt id='1494'> +3.1083424e+11 </wgt>
<wgt id='1495'> +2.9880090e+11 </wgt>
<wgt id='1496'> +3.0036056e+11 </wgt>
<wgt id='1497'> +2.9975542e+11 </wgt>
<wgt id='1498'> +2.9927666e+11 </wgt>
<wgt id='1499'> +3.0154620e+11 </wgt>
<wgt id='1500'> +2.9846404e+11 </wgt>
<wgt id='1501'> +2.9995548e+11 </wgt>
<wgt id='1502'> +2.9848964e+11 </wgt>
<wgt id='1503'> +2.9581729e+11 </wgt>
<wgt id='1504'> +3.0364820e+11 </wgt>
<wgt id='1505'> +3.0037618e+11 </wgt>
<wgt id='1506'> +2.9874821e+11 </wgt>
<wgt id='1507'> +3.0200894e+11 </wgt>
<wgt id='1508'> +2.9622744e+11 </wgt>
<wgt id='1509'> +3.0024681e+11 </wgt>
<wgt id='1510'> +2.9656755e+11 </wgt>
<wgt id='1511'> +3.0074489e+11 </wgt>
<wgt id='1512'> +2.9918858e+11 </wgt>
<wgt id='1513'> +2.9942924e+11 </wgt>
<wgt id='1514'> +2.9969621e+11 </wgt>
<wgt id='1515'> +3.0270195e+11 </wgt>
<wgt id='1516'> +2.9952229e+11 </wgt>
<wgt id='1517'> +2.9909777e+11 </wgt>
<wgt id='1518'> +3.0008215e+11 </wgt>
<wgt id='1519'> +2.9771530e+11 </wgt>
<wgt id='1520'> +3.0085721e+11 </wgt>
<wgt id='1521'> +2.9852236e+11 </wgt>
<wgt id='1522'> +3.0014605e+11 </wgt>
<wgt id='1523'> +3.0078569e+11 </wgt>
<wgt id='1524'> +3.0109845e+11 </wgt>
<wgt id='1525'> +3.0048395e+11 </wgt>
<wgt id='1526'> +3.0073969e+11 </wgt>
<wgt id='1527'> +2.9955310e+11 </wgt>
<wgt id='1528'> +2.9885733e+11 </wgt>
<wgt id='1529'> +2.9985709e+11 </wgt>
<wgt id='1530'> +2.9575746e+11 </wgt>
<wgt id='1531'> +3.0018045e+11 </wgt>
<wgt id='1532'> +2.9874051e+11 </wgt>
<wgt id='1533'> +2.9509495e+11 </wgt>
<wgt id='1534'> +2.9863439e+11 </wgt>
<wgt id='1535'> +3.0307510e+11 </wgt>
<wgt id='1536'> +2.9720329e+11 </wgt>
<wgt id='1537'> +3.0097995e+11 </wgt>
<wgt id='1538'> +2.9662483e+11 </wgt>
<wgt id='1539'> +3.0560891e+11 </wgt>
<wgt id='1540'> +3.0053066e+11 </wgt>
<wgt id='1541'> +3.0134662e+11 </wgt>
<wgt id='1542'> +3.0023275e+11 </wgt>
<wgt id='1543'> +3.0168311e+11 </wgt>
<wgt id='1544'> +2.9843124e+11 </wgt>
<wgt id='1545'> +2.9815938e+11 </wgt>
<wgt id='1546'> +2.9630953e+11 </wgt>
<wgt id='1547'> +3.0249417e+11 </wgt>
<wgt id='1548'> +2.9866707e+11 </wgt>
<wgt id='1549'> +2.9670415e+11 </wgt>
<wgt id='1550'> +3.0169944e+11 </wgt>
<wgt id='1551'> +3.0078730e+11 </wgt>
<wgt id='1552'> +3.0001552e+11 </wgt>
<wgt id='1553'> +3.0353630e+11 </wgt>
<wgt id='1554'> +3.0022208e+11 </wgt>
<wgt id='1555'> +3.0102017e+11 </wgt>
<wgt id='1556'> +3.0236945e+11 </wgt>
<wgt id='1557'> +2.9961634e+11 </wgt>
<wgt id='1558'> +3.0044405e+11 </wgt>
<wgt id='1559'> +2.9771276e+11 </wgt>
<wgt id='1560'> +2.9894332e+11 </wgt>
<wgt id='1561'> +2.9750480e+11 </wgt>
<wgt id='1562'> +2.9865405e+11 </wgt>
<wgt id='1563'> +3.0035911e+11 </wgt>
<wgt id='1564'> +2.9981895e+11 </wgt>
<wgt id='1565'> +3.0263649e+11 </wgt>
<wgt id='1566'> +3.0022352e+11 </wgt>
<wgt id='1567'> +3.0265366e+11 </wgt>
<wgt id='1568'> +3.0006468e+11 </wgt>
<wgt id='1569'> +2.9968945e+11 </wgt>
<wgt id='1570'> +3.0597324e+11 </wgt>
<wgt id='1571'> +3.0016103e+11 </wgt>
<wgt id='1572'> +3.0214634e+11 </wgt>
<wgt id='1573'> +3.0383440e+11 </wgt>
<wgt id='1574'> +2.5791616e+11 </wgt>
<wgt id='1575'> +2.5798484e+11 </wgt>
<wgt id='1576'> +2.5784799e+11 </wgt>
<wgt id='1577'> +2.5793421e+11 </wgt>
<wgt id='1578'> +2.5851101e+11 </wgt>
<wgt id='1579'> +2.5873823e+11 </wgt>
<wgt id='1580'> +2.5850599e+11 </wgt>
<wgt id='1581'> +2.5738424e+11 </wgt>
<wgt id='1582'> +2.5710248e+11 </wgt>
<wgt id='1583'> +2.5746435e+11 </wgt>
<wgt id='1584'> +2.5848478e+11 </wgt>
<wgt id='1585'> +2.5814077e+11 </wgt>
<wgt id='1586'> +2.5703276e+11 </wgt>
<wgt id='1587'> +2.5722037e+11 </wgt>
<wgt id='1588'> +2.5675654e+11 </wgt>
<wgt id='1589'> +2.5762201e+11 </wgt>
<wgt id='1590'> +2.5775378e+11 </wgt>
<wgt id='1591'> +2.5799237e+11 </wgt>
<wgt id='1592'> +2.5691809e+11 </wgt>
<wgt id='1593'> +2.5690565e+11 </wgt>
<wgt id='1594'> +2.5888685e+11 </wgt>
<wgt id='1595'> +2.5548733e+11 </wgt>
<wgt id='1596'> +2.6193115e+11 </wgt>
<wgt id='1597'> +2.5970908e+11 </wgt>
<wgt id='1598'> +2.5987038e+11 </wgt>
<wgt id='1599'> +2.5499502e+11 </wgt>
<wgt id='1600'> +2.6266015e+11 </wgt>
<wgt id='1601'> +2.6007081e+11 </wgt>
<wgt id='1602'> +2.5796185e+11 </wgt>
<wgt id='1603'> +2.7061622e+11 </wgt>
<wgt id='1604'> +2.5805884e+11 </wgt>
</rwgt>
</event>
<event>
 9      1 +2.8343000e+11 1.40000200e+03 7.81738600e-03 7.88881000e-02
       21 -1    0    0  504  503 +0.0000000000e+00 +0.0000000000e+00 +1.1526622990e+03 1.1526622990e+03 0.0000000000e+00 0.0000e+00 1.0000e+00
       21 -1    0    0  503  504 -0.0000000000e+00 -0.0000000000e+00 -4.2510396244e+02 4.2510396244e+02 0.0000000000e+00 0.0000e+00 1.0000e+00
       45  2    1    2    0    0 +0.0000000000e+00 +0.0000000000e+00 +7.2755833651e+02 1.5777662614e+03 1.4000018723e+03 0.0000e+00 0.0000e+00
       25  2    3    3    0    0 +5.3384397832e+01 -6.0962714619e+02 +2.3434098382e+00 6.2459693185e+02 1.2498273646e+02 0.0000e+00 0.0000e+00
       35  2    3    3    0    0 -5.3384397832e+01 +6.0962714619e+02 +7.2521492667e+02 9.5316932954e+02 8.9999608961e+01 0.0000e+00 0.0000e+00
        5  1    5    5  501    0 -2.3328761609e+01 +1.1835244387e+02 +9.5514374296e+01 1.5392298587e+02 4.2140000000e+00 0.0000e+00 1.0000e+00
       -5  1    5    5    0  501 -3.0055636223e+01 +4.9127470232e+02 +6.2970055238e+02 7.9924634367e+02 4.2140000000e+00 0.0000e+00 1.0000e+00
        5  1    4    4  502    0 -2.7529591352e+00 +3.5231537595e+00 +6.3760021758e+00 8.8545240504e+00 4.2140000000e+00 0.0000e+00 -1.0000e+00
       -5  1    4    4    0  502 +5.6137356967e+01 -6.1315029995e+02 -4.0325923376e+00 6.1574240780e+02 4.2140000000e+00 0.0000e+00 -1.0000e+00
<mgrwt>
<rscale>  0 0.14000019E+04</rscale>
<asrwt>0</asrwt>
<pdfrwt beam="1">  1       21 0.17733266E+00 0.14000019E+04</pdfrwt>
<pdfrwt beam="2">  1       21 0.65400610E-01 0.14000019E+04</pdfrwt>
<totfact> 0.28862929E+02</totfact>
</mgrwt>
<rwgt>
<wgt id='1001'> +2.8343000e+11 </wgt>
<wgt id='1002'> +2.8935077e+11 </wgt>
<wgt id='1003'> +2.8930837e+11 </wgt>
<wgt id='1004'> +3.2563677e+11 </wgt>
<wgt id='1005'> +2.8343000e+11 </wgt>
<wgt id='1006'> +2.8343000e+11 </wgt>
<wgt id='1007'> +2.8935077e+11 </wgt>
<wgt id='1008'> +2.8930837e+11 </wgt>
<wgt id='1009'> +3.2563677e+11 </wgt>
<wgt id='1010'> +2.8343000e+11 </wgt>
<wgt id='1011'> +2.8343000e+11 </wgt>
<wgt id='1012'> +2.8935077e+11 </wgt>
<wgt id='1013'> +2.8930837e+11 </wgt>
<wgt id='1014'> +3.2563677e+11 </wgt>
<wgt id='1015'> +2.8343000e+11 </wgt>
<wgt id='1016'> +2.5402951e+11 </wgt>
<wgt id='1017'> +2.5902428e+11 </wgt>
<wgt id='1018'> +2.5898855e+11 </wgt>
<wgt id='1019'> +2.8930837e+11 </wgt>
<wgt id='1020'> +2.5402951e+11 </wgt>
<wgt id='1021'> +2.5402951e+11 </wgt>
<wgt id='1022'> +2.5902428e+11 </wgt>
<wgt id='1023'> +2.5898855e+11 </wgt>
<wgt id='1024'> +2.8930837e+11 </wgt>
<wgt id='1025'> +2.5402951e+11 </wgt>
<wgt id='1026'> +2.5402951e+11 </wgt>
<wgt id='1027'> +2.5902428e+11 </wgt>
<wgt id='1028'> +2.5898855e+11 </wgt>
<wgt id='1029'> +2.8930837e+11 </wgt>
<wgt id='1030'> +2.5402951e+11 </wgt>
<wgt id='1031'> +3.1856129e+11 </wgt>
<wgt id='1032'> +3.2568786e+11 </wgt>
<wgt id='1033'> +3.2563677e+11 </wgt>
<wgt id='1034'> +3.6953215e+11 </wgt>
<wgt id='1035'> +3.1856129e+11 </wgt>
<wgt id='1036'> +3.1856129e+11 </wgt>
<wgt id='1037'> +3.2568786e+11 </wgt>
<wgt id='1038'> +3.2563677e+11 </wgt>
<wgt id='1039'> +3.6953215e+11 </wgt>
<wgt id='1040'> +3.1856129e+11 </wgt>
<wgt id='1041'> +3.1856129e+11 </wgt>
<wgt id='1042'> +3.2568786e+11 </wgt>
<wgt id='1043'> +3.2563677e+11 </wgt>
<wgt id='1044'> +3.6953215e+11 </wgt>
<wgt id='1045'> +3.1856129e+11 </wgt>
<wgt id='1046'> +2.8343000e+11 </wgt>
<wgt id='1047'> +2.8343000e+11 </wgt>
<wgt id='1048'> +2.8343000e+11 </wgt>
<wgt id='1049'> +2.8283660e+11 </wgt>
<wgt id='1050'> +2.8324040e+11 </wgt>
<wgt id='1051'> +2.8327039e+11 </wgt>
<wgt id='1052'> +2.8433467e+11 </wgt>
<wgt id='1053'> +2.8167513e+11 </wgt>
<wgt id='1054'> +2.8371678e+11 </wgt>
<wgt id='1055'> +2.8221590e+11 </wgt>
<wgt id='1056'> +2.8214035e+11 </wgt>
<wgt id='1057'> +2.8344354e+11 </wgt>
<wgt id='1058'> +2.8280630e+11 </wgt>
<wgt id='1059'> +2.8524244e+11 </wgt>
<wgt id='1060'> +2.8379878e+11 </wgt>
<wgt id='1061'> +2.8395351e+11 </wgt>
<wgt id='1062'> +2.8428024e+11 </wgt>
<wgt id='1063'> +2.8450690e+11 </wgt>
<wgt id='1064'> +2.8407323e+11 </wgt>
<wgt id='1065'> +2.8467212e+11 </wgt>
<wgt id='1066'> +2.8130735e+11 </wgt>
<wgt id='1067'> +2.8171788e+11 </wgt>
<wgt id='1068'> +2.8337662e+11 </wgt>
<wgt id='1069'> +2.8257768e+11 </wgt>
<wgt id='1070'> +2.8394302e+11 </wgt>
<wgt id='1071'> +2.8311024e+11 </wgt>
<wgt id='1072'> +2.8241081e+11 </wgt>
<wgt id='1073'> +2.8322278e+11 </wgt>
<wgt id='1074'> +2.8311955e+11 </wgt>
<wgt id='1075'> +2.8439783e+11 </wgt>
<wgt id='1076'> +2.8154663e+11 </wgt>
<wgt id='1077'> +2.8205090e+11 </wgt>
<wgt id='1078'> +2.8412359e+11 </wgt>
<wgt id='1079'> +2.8218718e+11 </wgt>
<wgt id='1080'> +2.8318664e+11 </wgt>
<wgt id='1081'> +2.8294378e+11 </wgt>
<wgt id='1082'> +2.8220740e+11 </wgt>
<wgt id='1083'> +2.8399924e+11 </wgt>
<wgt id='1084'> +2.8392056e+11 </wgt>
<wgt id='1085'> +2.8273828e+11 </wgt>
<wgt id='1086'> +2.8317121e+11 </wgt>
<wgt id='1087'> +2.8321198e+11 </wgt>
<wgt id='1088'> +2.8295908e+11 </wgt>
<wgt id='1089'> +2.8258136e+11 </wgt>
<wgt id='1090'> +2.8407322e+11 </wgt>
<wgt id='1091'> +2.8353061e+11 </wgt>
<wgt id='1092'> +2.8374360e+11 </wgt>
<wgt id='1093'> +2.8341626e+11 </wgt>
<wgt id='1094'> +2.8261323e+11 </wgt>
<wgt id='1095'> +2.8363608e+11 </wgt>
<wgt id='1096'> +2.8342562e+11 </wgt>
<wgt id='1097'> +2.8294978e+11 </wgt>
<wgt id='1098'> +2.8313008e+11 </wgt>
<wgt id='1099'> +2.8319339e+11 </wgt>
<wgt id='1100'> +2.8405739e+11 </wgt>
<wgt id='1101'> +2.8349430e+11 </wgt>
<wgt id='1102'> +2.8333075e+11 </wgt>
<wgt id='1103'> +2.8289850e+11 </wgt>
<wgt id='1104'> +2.8320264e+11 </wgt>
<wgt id='1105'> +2.8352302e+11 </wgt>
<wgt id='1106'> +2.8376364e+11 </wgt>
<wgt id='1107'> +2.8351521e+11 </wgt>
<wgt id='1108'> +2.8324659e+11 </wgt>
<wgt id='1109'> +2.8323678e+11 </wgt>
<wgt id='1110'> +2.8371014e+11 </wgt>
<wgt id='1111'> +2.8360115e+11 </wgt>
<wgt id='1112'> +2.8338157e+11 </wgt>
<wgt id='1113'> +2.8376868e+11 </wgt>
<wgt id='1114'> +2.8313239e+11 </wgt>
<wgt id='1115'> +2.8310437e+11 </wgt>
<wgt id='1116'> +2.8394445e+11 </wgt>
<wgt id='1117'> +2.8335952e+11 </wgt>
<wgt id='1118'> +2.8364368e+11 </wgt>
<wgt id='1119'> +2.8311803e+11 </wgt>
<wgt id='1120'> +2.8317902e+11 </wgt>
<wgt id='1121'> +2.8351544e+11 </wgt>
<wgt id='1122'> +2.8315401e+11 </wgt>
<wgt id='1123'> +2.8337792e+11 </wgt>
<wgt id='1124'> +2.8342058e+11 </wgt>
<wgt id='1125'> +2.8361611e+11 </wgt>
<wgt id='1126'> +2.8354477e+11 </wgt>
<wgt id='1127'> +2.8328728e+11 </wgt>
<wgt id='1128'> +2.8341528e+11 </wgt>
<wgt id='1129'> +2.8331795e+11 </wgt>
<wgt id='1130'> +2.8345997e+11 </wgt>
<wgt id='1131'> +2.8384878e+11 </wgt>
<wgt id='1132'> +2.8334268e+11 </wgt>
<wgt id='1133'> +2.8354857e+11 </wgt>
<wgt id='1134'> +2.8341951e+11 </wgt>
<wgt id='1135'> +2.8346620e+11 </wgt>
<wgt id='1136'> +2.8335489e+11 </wgt>
<wgt id='1137'> +2.8324015e+11 </wgt>
<wgt id='1138'> +2.8356745e+11 </wgt>
<wgt id='1139'> +2.8349679e+11 </wgt>
<wgt id='1140'> +2.8367469e+11 </wgt>
<wgt id='1141'> +2.8322990e+11 </wgt>
<wgt id='1142'> +2.8348189e+11 </wgt>
<wgt id='1143'> +2.8361123e+11 </wgt>
<wgt id='1144'> +2.8332904e+11 </wgt>
<wgt id='1145'> +2.8357307e+11 </wgt>
<wgt id='1146'> +2.8346422e+11 </wgt>
<wgt id='1147'> +2.8348647e+11 </wgt>
<wgt id='1148'> +2.8343000e+11 </wgt>
<wgt id='1149'> +2.8343000e+11 </wgt>
<wgt id='1150'> +2.9720129e+11 </wgt>
<wgt id='1151'> +2.7742842e+11 </wgt>
<wgt id='1152'> +2.7699868e+11 </wgt>
<wgt id='1153'> +2.8596349e+11 </wgt>
<wgt id='1154'> +2.8229136e+11 </wgt>
<wgt id='1155'> +2.9309640e+11 </wgt>
<wgt id='1156'> +2.7778693e+11 </wgt>
<wgt id='1157'> +2.7455825e+11 </wgt>
<wgt id='1158'> +2.7704549e+11 </wgt>
<wgt id='1159'> +3.0000056e+11 </wgt>
<wgt id='1160'> +2.8514233e+11 </wgt>
<wgt id='1161'> +2.8791621e+11 </wgt>
<wgt id='1162'> +2.8464829e+11 </wgt>
<wgt id='1163'> +2.8634202e+11 </wgt>
<wgt id='1164'> +2.7302251e+11 </wgt>
<wgt id='1165'> +2.7800071e+11 </wgt>
<wgt id='1166'> +2.8318061e+11 </wgt>
<wgt id='1167'> +2.7800829e+11 </wgt>
<wgt id='1168'> +2.7443168e+11 </wgt>
<wgt id='1169'> +2.7585410e+11 </wgt>
<wgt id='1170'> +2.8385462e+11 </wgt>
<wgt id='1171'> +2.7296553e+11 </wgt>
<wgt id='1172'> +2.7477888e+11 </wgt>
<wgt id='1173'> +2.8551271e+11 </wgt>
<wgt id='1174'> +2.7691311e+11 </wgt>
<wgt id='1175'> +2.7819703e+11 </wgt>
<wgt id='1176'> +2.8675376e+11 </wgt>
<wgt id='1177'> +2.7810574e+11 </wgt>
<wgt id='1178'> +2.8396057e+11 </wgt>
<wgt id='1179'> +2.8334158e+11 </wgt>
<wgt id='1180'> +2.8809634e+11 </wgt>
<wgt id='1181'> +2.8903170e+11 </wgt>
<wgt id='1182'> +2.8006959e+11 </wgt>
<wgt id='1183'> +2.8996705e+11 </wgt>
<wgt id='1184'> +2.8248830e+11 </wgt>
<wgt id='1185'> +2.8763147e+11 </wgt>
<wgt id='1186'> +2.7716990e+11 </wgt>
<wgt id='1187'> +2.8429729e+11 </wgt>
<wgt id='1188'> +2.8769677e+11 </wgt>
<wgt id='1189'> +2.8201122e+11 </wgt>
<wgt id='1190'> +2.8097822e+11 </wgt>
<wgt id='1191'> +2.9068335e+11 </wgt>
<wgt id='1192'> +2.8867731e+11 </wgt>
<wgt id='1193'> +2.9085169e+11 </wgt>
<wgt id='1194'> +2.8042401e+11 </wgt>
<wgt id='1195'> +2.8472515e+11 </wgt>
<wgt id='1196'> +2.9150753e+11 </wgt>
<wgt id='1197'> +2.9101626e+11 </wgt>
<wgt id='1198'> +2.8475642e+11 </wgt>
<wgt id='1199'> +2.8786231e+11 </wgt>
<wgt id='1200'> +2.8764421e+11 </wgt>
<wgt id='1201'> +2.8069928e+11 </wgt>
<wgt id='1202'> +2.8633290e+11 </wgt>
<wgt id='1203'> +2.8174202e+11 </wgt>
<wgt id='1204'> +2.8248361e+11 </wgt>
<wgt id='1205'> +2.8380508e+11 </wgt>
<wgt id='1206'> +2.7973357e+11 </wgt>
<wgt id='1207'> +2.9115926e+11 </wgt>
<wgt id='1208'> +2.7065685e+11 </wgt>
<wgt id='1209'> +2.8337423e+11 </wgt>
<wgt id='1210'> +2.8598418e+11 </wgt>
<wgt id='1211'> +2.8409581e+11 </wgt>
<wgt id='1212'> +2.8307277e+11 </wgt>
<wgt id='1213'> +2.8871670e+11 </wgt>
<wgt id='1214'> +2.7765307e+11 </wgt>
<wgt id='1215'> +2.8401467e+11 </wgt>
<wgt id='1216'> +2.8099075e+11 </wgt>
<wgt id='1217'> +2.7816978e+11 </wgt>
<wgt id='1218'> +2.8492567e+11 </wgt>
<wgt id='1219'> +2.9359893e+11 </wgt>
<wgt id='1220'> +2.7968171e+11 </wgt>
<wgt id='1221'> +2.7672373e+11 </wgt>
<wgt id='1222'> +2.7867984e+11 </wgt>
<wgt id='1223'> +2.7331813e+11 </wgt>
<wgt id='1224'> +2.8271062e+11 </wgt>
<wgt id='1225'> +2.8717563e+11 </wgt>
<wgt id='1226'> +2.8653587e+11 </wgt>
<wgt id='1227'> +2.7981433e+11 </wgt>
<wgt id='1228'> +2.8224513e+11 </wgt>
<wgt id='1229'> +3.0095288e+11 </wgt>
<wgt id='1230'> +2.8968641e+11 </wgt>
<wgt id='1231'> +2.7800071e+11 </wgt>
<wgt id='1232'> +2.8735541e+11 </wgt>
<wgt id='1233'> +2.7643327e+11 </wgt>
<wgt id='1234'> +2.7773773e+11 </wgt>
<wgt id='1235'> +2.9976612e+11 </wgt>
<wgt id='1236'> +2.7773748e+11 </wgt>
<wgt id='1237'> +2.8926567e+11 </wgt>
<wgt id='1238'> +2.8219162e+11 </wgt>
<wgt id='1239'> +2.8650854e+11 </wgt>
<wgt id='1240'> +2.7827171e+11 </wgt>
<wgt id='1241'> +2.8591403e+11 </wgt>
<wgt id='1242'> +2.8007130e+11 </wgt>
<wgt id='1243'> +2.8551689e+11 </wgt>
<wgt id='1244'> +2.8732797e+11 </wgt>
<wgt id='1245'> +2.7844866e+11 </wgt>
<wgt id='1246'> +3.0455564e+11 </wgt>
<wgt id='1247'> +2.8149808e+11 </wgt>
<wgt id='1248'> +2.7326722e+11 </wgt>
<wgt id='1249'> +2.7572526e+11 </wgt>
<wgt id='1250'> +2.9316180e+11 </wgt>
<wgt id='1251'> +3.0077419e+11 </wgt>
<wgt id='1252'> +2.8789796e+11 </wgt>
<wgt id='1253'> +2.8979167e+11 </wgt>
<wgt id='1254'> +2.8892830e+11 </wgt>
<wgt id='1255'> +3.0184742e+11 </wgt>
<wgt id='1256'> +3.0203311e+11 </wgt>
<wgt id='1257'> +2.9788859e+11 </wgt>
<wgt id='1258'> +2.9405963e+11 </wgt>
<wgt id='1259'> +3.0124371e+11 </wgt>
<wgt id='1260'> +3.2675751e+11 </wgt>
<wgt id='1261'> +3.1424707e+11 </wgt>
<wgt id='1262'> +2.9283814e+11 </wgt>
<wgt id='1263'> +2.9859494e+11 </wgt>
<wgt id='1264'> +3.0153568e+11 </wgt>
<wgt id='1265'> +2.9486934e+11 </wgt>
<wgt id='1266'> +3.0203186e+11 </wgt>
<wgt id='1267'> +3.3856464e+11 </wgt>
<wgt id='1268'> +2.9027637e+11 </wgt>
<wgt id='1269'> +2.8677630e+11 </wgt>
<wgt id='1270'> +3.0138089e+11 </wgt>
<wgt id='1271'> +2.6967460e+11 </wgt>
<wgt id='1272'> +2.9306503e+11 </wgt>
<wgt id='1273'> +2.9070689e+11 </wgt>
<wgt id='1274'> +2.8644058e+11 </wgt>
<wgt id='1275'> +2.9493116e+11 </wgt>
<wgt id='1276'> +3.0090062e+11 </wgt>
<wgt id='1277'> +2.9596540e+11 </wgt>
<wgt id='1278'> +2.9669813e+11 </wgt>
<wgt id='1279'> +2.7976230e+11 </wgt>
<wgt id='1280'> +2.8685322e+11 </wgt>
<wgt id='1281'> +2.8497738e+11 </wgt>
<wgt id='1282'> +2.9536734e+11 </wgt>
<wgt id='1283'> +3.0606798e+11 </wgt>
<wgt id='1284'> +3.1006632e+11 </wgt>
<wgt id='1285'> +3.0805360e+11 </wgt>
<wgt id='1286'> +3.2963141e+11 </wgt>
<wgt id='1287'> +3.0677431e+11 </wgt>
<wgt id='1288'> +3.3126364e+11 </wgt>
<wgt id='1289'> +3.1395855e+11 </wgt>
<wgt id='1290'> +3.1216732e+11 </wgt>
<wgt id='1291'> +2.7813682e+11 </wgt>
<wgt id='1292'> +3.0151086e+11 </wgt>
<wgt id='1293'> +3.0255761e+11 </wgt>
<wgt id='1294'> +3.2069489e+11 </wgt>
<wgt id='1295'> +3.0784761e+11 </wgt>
<wgt id='1296'> +3.2522417e+11 </wgt>
<wgt id='1297'> +2.9192241e+11 </wgt>
<wgt id='1298'> +2.8820047e+11 </wgt>
<wgt id='1299'> +3.0267196e+11 </wgt>
<wgt id='1300'> +2.8549595e+11 </wgt>
<wgt id='1301'> +2.7927686e+11 </wgt>
<wgt id='1302'> +2.8185858e+11 </wgt>
<wgt id='1303'> +3.0194036e+11 </wgt>
<wgt id='1304'> +3.2042388e+11 </wgt>
<wgt id='1305'> +2.9838047e+11 </wgt>
<wgt id='1306'> +3.0579715e+11 </wgt>
<wgt id='1307'> +2.9213477e+11 </wgt>
<wgt id='1308'> +3.2919899e+11 </wgt>
<wgt id='1309'> +2.9928730e+11 </wgt>
<wgt id='1310'> +3.0293404e+11 </wgt>
<wgt id='1311'> +3.0077869e+11 </wgt>
<wgt id='1312'> +3.0896369e+11 </wgt>
<wgt id='1313'> +3.0169740e+11 </wgt>
<wgt id='1314'> +2.9673492e+11 </wgt>
<wgt id='1315'> +2.8703183e+11 </wgt>
<wgt id='1316'> +2.9955906e+11 </wgt>
<wgt id='1317'> +3.0845936e+11 </wgt>
<wgt id='1318'> +2.9072440e+11 </wgt>
<wgt id='1319'> +2.9846771e+11 </wgt>
<wgt id='1320'> +3.1513665e+11 </wgt>
<wgt id='1321'> +2.9932073e+11 </wgt>
<wgt id='1322'> +3.0557169e+11 </wgt>
<wgt id='1323'> +2.9196310e+11 </wgt>
<wgt id='1324'> +3.0583601e+11 </wgt>
<wgt id='1325'> +3.1209462e+11 </wgt>
<wgt id='1326'> +3.0778088e+11 </wgt>
<wgt id='1327'> +3.0818436e+11 </wgt>
<wgt id='1328'> +2.9796840e+11 </wgt>
<wgt id='1329'> +2.9784367e+11 </wgt>
<wgt id='1330'> +2.8649543e+11 </wgt>
<wgt id='1331'> +3.2186569e+11 </wgt>
<wgt id='1332'> +2.9401207e+11 </wgt>
<wgt id='1333'> +3.0181615e+11 </wgt>
<wgt id='1334'> +3.1623397e+11 </wgt>
<wgt id='1335'> +2.9268293e+11 </wgt>
<wgt id='1336'> +3.1227598e+11 </wgt>
<wgt id='1337'> +3.0884472e+11 </wgt>
<wgt id='1338'> +2.8797940e+11 </wgt>
<wgt id='1339'> +3.1633569e+11 </wgt>
<wgt id='1340'> +3.0608041e+11 </wgt>
<wgt id='1341'> +3.1766791e+11 </wgt>
<wgt id='1342'> +3.0596281e+11 </wgt>
<wgt id='1343'> +3.0903011e+11 </wgt>
<wgt id='1344'> +3.1367190e+11 </wgt>
<wgt id='1345'> +2.6795353e+11 </wgt>
<wgt id='1346'> +3.0320036e+11 </wgt>
<wgt id='1347'> +2.9089596e+11 </wgt>
<wgt id='1348'> +2.8973028e+11 </wgt>
<wgt id='1349'> +2.8749896e+11 </wgt>
<wgt id='1350'> +3.0643081e+11 </wgt>
<wgt id='1351'> +2.9254096e+11 </wgt>
<wgt id='1352'> +3.0290850e+11 </wgt>
<wgt id='1353'> +2.9972417e+11 </wgt>
<wgt id='1354'> +3.0894200e+11 </wgt>
<wgt id='1355'> +2.7723045e+11 </wgt>
<wgt id='1356'> +2.7988500e+11 </wgt>
<wgt id='1357'> +2.7760939e+11 </wgt>
<wgt id='1358'> +2.7540690e+11 </wgt>
<wgt id='1359'> +2.7695093e+11 </wgt>
<wgt id='1360'> +2.7201035e+11 </wgt>
<wgt id='1361'> +2.7627551e+11 </wgt>
<wgt id='1362'> +2.8338773e+11 </wgt>
<wgt id='1363'> +2.7407210e+11 </wgt>
<wgt id='1364'> +2.8225752e+11 </wgt>
<wgt id='1365'> +2.7507311e+11 </wgt>
<wgt id='1366'> +2.7434090e+11 </wgt>
<wgt id='1367'> +2.7737537e+11 </wgt>
<wgt id='1368'> +2.7764009e+11 </wgt>
<wgt id='1369'> +2.8037094e+11 </wgt>
<wgt id='1370'> +2.7466247e+11 </wgt>
<wgt id='1371'> +2.7725928e+11 </wgt>
<wgt id='1372'> +2.7951878e+11 </wgt>
<wgt id='1373'> +2.8045748e+11 </wgt>
<wgt id='1374'> +2.6974128e+11 </wgt>
<wgt id='1375'> +2.7792611e+11 </wgt>
<wgt id='1376'> +2.7670020e+11 </wgt>
<wgt id='1377'> +2.7779868e+11 </wgt>
<wgt id='1378'> +2.7609235e+11 </wgt>
<wgt id='1379'> +2.7570158e+11 </wgt>
<wgt id='1380'> +2.7484454e+11 </wgt>
<wgt id='1381'> +2.8198155e+11 </wgt>
<wgt id='1382'> +2.7628066e+11 </wgt>
<wgt id='1383'> +2.7525757e+11 </wgt>
<wgt id='1384'> +2.7388196e+11 </wgt>
<wgt id='1385'> +2.7339454e+11 </wgt>
<wgt id='1386'> +2.7638799e+11 </wgt>
<wgt id='1387'> +2.7554701e+11 </wgt>
<wgt id='1388'> +2.7266934e+11 </wgt>
<wgt id='1389'> +2.7612079e+11 </wgt>
<wgt id='1390'> +2.7874303e+11 </wgt>
<wgt id='1391'> +2.7551749e+11 </wgt>
<wgt id='1392'> +2.7424686e+11 </wgt>
<wgt id='1393'> +2.7739742e+11 </wgt>
<wgt id='1394'> +2.7575860e+11 </wgt>
<wgt id='1395'> +2.7244074e+11 </wgt>
<wgt id='1396'> +2.7775200e+11 </wgt>
<wgt id='1397'> +2.7799337e+11 </wgt>
<wgt id='1398'> +2.7949532e+11 </wgt>
<wgt id='1399'> +2.7457317e+11 </wgt>
<wgt id='1400'> +2.7280039e+11 </wgt>
<wgt id='1401'> +2.7757420e+11 </wgt>
<wgt id='1402'> +2.7995032e+11 </wgt>
<wgt id='1403'> +2.8381009e+11 </wgt>
<wgt id='1404'> +2.7887743e+11 </wgt>
<wgt id='1405'> +2.8376422e+11 </wgt>
<wgt id='1406'> +2.7907807e+11 </wgt>
<wgt id='1407'> +2.7761361e+11 </wgt>
<wgt id='1408'> +2.8252973e+11 </wgt>
<wgt id='1409'> +2.7340184e+11 </wgt>
<wgt id='1410'> +2.7092075e+11 </wgt>
<wgt id='1411'> +2.7695756e+11 </wgt>
<wgt id='1412'> +2.7555475e+11 </wgt>
<wgt id='1413'> +2.7667897e+11 </wgt>
<wgt id='1414'> +2.7967920e+11 </wgt>
<wgt id='1415'> +2.7972711e+11 </wgt>
<wgt id='1416'> +2.7926893e+11 </wgt>
<wgt id='1417'> +2.7354217e+11 </wgt>
<wgt id='1418'> +2.7723896e+11 </wgt>
<wgt id='1419'> +2.8094953e+11 </wgt>
<wgt id='1420'> +2.7468911e+11 </wgt>
<wgt id='1421'> +2.8349655e+11 </wgt>
<wgt id='1422'> +2.7037937e+11 </wgt>
<wgt id='1423'> +2.8187201e+11 </wgt>
<wgt id='1424'> +2.7827511e+11 </wgt>
<wgt id='1425'> +2.7782054e+11 </wgt>
<wgt id='1426'> +2.7949796e+11 </wgt>
<wgt id='1427'> +2.7651383e+11 </wgt>
<wgt id='1428'> +2.7636598e+11 </wgt>
<wgt id='1429'> +2.7665056e+11 </wgt>
<wgt id='1430'> +2.7339725e+11 </wgt>
<wgt id='1431'> +2.7241445e+11 </wgt>
<wgt id='1432'> +2.7619869e+11 </wgt>
<wgt id='1433'> +2.7496729e+11 </wgt>
<wgt id='1434'> +2.8468977e+11 </wgt>
<wgt id='1435'> +2.7621856e+11 </wgt>
<wgt id='1436'> +2.8100273e+11 </wgt>
<wgt id='1437'> +2.7728793e+11 </wgt>
<wgt id='1438'> +2.7647673e+11 </wgt>
<wgt id='1439'> +2.8132556e+11 </wgt>
<wgt id='1440'> +2.7965368e+11 </wgt>
<wgt id='1441'> +2.7462482e+11 </wgt>
<wgt id='1442'> +2.8196837e+11 </wgt>
<wgt id='1443'> +2.7461311e+11 </wgt>
<wgt id='1444'> +2.7971744e+11 </wgt>
<wgt id='1445'> +2.7808749e+11 </wgt>
<wgt id='1446'> +2.8286529e+11 </wgt>
<wgt id='1447'> +2.7510054e+11 </wgt>
<wgt id='1448'> +2.7970199e+11 </wgt>
<wgt id='1449'> +2.8001271e+11 </wgt>
<wgt id='1450'> +2.7647223e+11 </wgt>
<wgt id='1451'> +2.7842466e+11 </wgt>
<wgt id='1452'> +2.7944361e+11 </wgt>
<wgt id='1453'> +2.7897260e+11 </wgt>
<wgt id='1454'> +2.6934821e+11 </wgt>
<wgt id='1455'> +2.7600649e+11 </wgt>
<wgt id='1456'> +2.7613713e+11 </wgt>
<wgt id='1457'> +2.7634117e+11 </wgt>
<wgt id='1458'> +2.8170194e+11 </wgt>
<wgt id='1459'> +3.0920419e+11 </wgt>
<wgt id='1460'> +3.0426651e+11 </wgt>
<wgt id='1461'> +3.5869125e+11 </wgt>
<wgt id='1462'> +2.9934226e+11 </wgt>
<wgt id='1463'> +2.9957318e+11 </wgt>
<wgt id='1464'> +2.9904610e+11 </wgt>
<wgt id='1465'> +2.9940715e+11 </wgt>
<wgt id='1466'> +2.9928298e+11 </wgt>
<wgt id='1467'> +2.9947462e+11 </wgt>
<wgt id='1468'> +2.9912507e+11 </wgt>
<wgt id='1469'> +2.9890546e+11 </wgt>
<wgt id='1470'> +2.9969700e+11 </wgt>
<wgt id='1471'> +2.9980035e+11 </wgt>
<wgt id='1472'> +2.9887042e+11 </wgt>
<wgt id='1473'> +3.0051732e+11 </wgt>
<wgt id='1474'> +2.9821362e+11 </wgt>
<wgt id='1475'> +3.0045820e+11 </wgt>
<wgt id='1476'> +2.9855114e+11 </wgt>
<wgt id='1477'> +2.9878747e+11 </wgt>
<wgt id='1478'> +3.0063834e+11 </wgt>
<wgt id='1479'> +2.9891551e+11 </wgt>
<wgt id='1480'> +2.9964295e+11 </wgt>
<wgt id='1481'> +2.9885541e+11 </wgt>
<wgt id='1482'> +2.9999992e+11 </wgt>
<wgt id='1483'> +2.9942039e+11 </wgt>
<wgt id='1484'> +2.9923299e+11 </wgt>
<wgt id='1485'> +2.9955097e+11 </wgt>
<wgt id='1486'> +2.9883964e+11 </wgt>
<wgt id='1487'> +2.9961542e+11 </wgt>
<wgt id='1488'> +2.9900080e+11 </wgt>
<wgt id='1489'> +2.9897841e+11 </wgt>
<wgt id='1490'> +3.0032887e+11 </wgt>
<wgt id='1491'> +3.0429667e+11 </wgt>
<wgt id='1492'> +2.9658003e+11 </wgt>
<wgt id='1493'> +2.9576071e+11 </wgt>
<wgt id='1494'> +3.1057328e+11 </wgt>
<wgt id='1495'> +2.9860683e+11 </wgt>
<wgt id='1496'> +3.0013163e+11 </wgt>
<wgt id='1497'> +2.9954345e+11 </wgt>
<wgt id='1498'> +2.9906735e+11 </wgt>
<wgt id='1499'> +3.0131530e+11 </wgt>
<wgt id='1500'> +2.9826398e+11 </wgt>
<wgt id='1501'> +2.9975490e+11 </wgt>
<wgt id='1502'> +2.9825093e+11 </wgt>
<wgt id='1503'> +2.9570324e+11 </wgt>
<wgt id='1504'> +3.0331447e+11 </wgt>
<wgt id='1505'> +3.0019328e+11 </wgt>
<wgt id='1506'> +2.9851190e+11 </wgt>
<wgt id='1507'> +3.0163248e+11 </wgt>
<wgt id='1508'> +2.9638549e+11 </wgt>
<wgt id='1509'> +3.0001825e+11 </wgt>
<wgt id='1510'> +2.9643410e+11 </wgt>
<wgt id='1511'> +3.0052384e+11 </wgt>
<wgt id='1512'> +2.9898181e+11 </wgt>
<wgt id='1513'> +2.9922668e+11 </wgt>
<wgt id='1514'> +2.9947392e+11 </wgt>
<wgt id='1515'> +3.0237922e+11 </wgt>
<wgt id='1516'> +2.9938395e+11 </wgt>
<wgt id='1517'> +2.9889999e+11 </wgt>
<wgt id='1518'> +2.9983659e+11 </wgt>
<wgt id='1519'> +2.9753483e+11 </wgt>
<wgt id='1520'> +3.0062532e+11 </wgt>
<wgt id='1521'> +2.9835016e+11 </wgt>
<wgt id='1522'> +2.9991569e+11 </wgt>
<wgt id='1523'> +3.0058866e+11 </wgt>
<wgt id='1524'> +3.0086192e+11 </wgt>
<wgt id='1525'> +3.0031506e+11 </wgt>
<wgt id='1526'> +3.0047071e+11 </wgt>
<wgt id='1527'> +2.9934226e+11 </wgt>
<wgt id='1528'> +2.9872470e+11 </wgt>
<wgt id='1529'> +2.9954794e+11 </wgt>
<wgt id='1530'> +2.9556788e+11 </wgt>
<wgt id='1531'> +2.9935645e+11 </wgt>
<wgt id='1532'> +2.9773958e+11 </wgt>
<wgt id='1533'> +2.9435706e+11 </wgt>
<wgt id='1534'> +2.9781443e+11 </wgt>
<wgt id='1535'> +3.0216167e+11 </wgt>
<wgt id='1536'> +2.9645612e+11 </wgt>
<wgt id='1537'> +2.9998810e+11 </wgt>
<wgt id='1538'> +2.9588699e+11 </wgt>
<wgt id='1539'> +3.0486362e+11 </wgt>
<wgt id='1540'> +2.9953448e+11 </wgt>
<wgt id='1541'> +3.0042447e+11 </wgt>
<wgt id='1542'> +2.9939646e+11 </wgt>
<wgt id='1543'> +3.0080650e+11 </wgt>
<wgt id='1544'> +2.9757870e+11 </wgt>
<wgt id='1545'> +2.9733955e+11 </wgt>
<wgt id='1546'> +2.9546829e+11 </wgt>
<wgt id='1547'> +3.0167251e+11 </wgt>
<wgt id='1548'> +2.9777720e+11 </wgt>
<wgt id='1549'> +2.9588400e+11 </wgt>
<wgt id='1550'> +3.0075299e+11 </wgt>
<wgt id='1551'> +2.9995865e+11 </wgt>
<wgt id='1552'> +2.9913076e+11 </wgt>
<wgt id='1553'> +3.0246223e+11 </wgt>
<wgt id='1554'> +2.9936364e+11 </wgt>
<wgt id='1555'> +3.0016210e+11 </wgt>
<wgt id='1556'> +3.0158400e+11 </wgt>
<wgt id='1557'> +2.9869957e+11 </wgt>
<wgt id='1558'> +2.9958938e+11 </wgt>
<wgt id='1559'> +2.9694007e+11 </wgt>
<wgt id='1560'> +2.9810410e+11 </wgt>
<wgt id='1561'> +2.9654262e+11 </wgt>
<wgt id='1562'> +2.9787146e+11 </wgt>
<wgt id='1563'> +2.9951264e+11 </wgt>
<wgt id='1564'> +2.9897475e+11 </wgt>
<wgt id='1565'> +3.0172554e+11 </wgt>
<wgt id='1566'> +2.9939290e+11 </wgt>
<wgt id='1567'> +3.0203989e+11 </wgt>
<wgt id='1568'> +2.9924857e+11 </wgt>
<wgt id='1569'> +2.9889373e+11 </wgt>
<wgt id='1570'> +3.0523338e+11 </wgt>
<wgt id='1571'> +2.9930846e+11 </wgt>
<wgt id='1572'> +3.0135229e+11 </wgt>
<wgt id='1573'> +3.0291577e+11 </wgt>
<wgt id='1574'> +2.5808526e+11 </wgt>
<wgt id='1575'> +2.5815419e+11 </wgt>
<wgt id='1576'> +2.5801723e+11 </wgt>
<wgt id='1577'> +2.5810331e+11 </wgt>
<wgt id='1578'> +2.5868069e+11 </wgt>
<wgt id='1579'> +2.5891225e+11 </wgt>
<wgt id='1580'> +2.5868042e+11 </wgt>
<wgt id='1581'> +2.5754263e+11 </wgt>
<wgt id='1582'> +2.5725828e+11 </wgt>
<wgt id='1583'> +2.5763710e+11 </wgt>
<wgt id='1584'> +2.5865365e+11 </wgt>
<wgt id='1585'> +2.5830462e+11 </wgt>
<wgt id='1586'> +2.5718619e+11 </wgt>
<wgt id='1587'> +2.5738113e+11 </wgt>
<wgt id='1588'> +2.5691336e+11 </wgt>
<wgt id='1589'> +2.5779741e+11 </wgt>
<wgt id='1590'> +2.5792025e+11 </wgt>
<wgt id='1591'> +2.5816051e+11 </wgt>
<wgt id='1592'> +2.5708409e+11 </wgt>
<wgt id='1593'> +2.5709235e+11 </wgt>
<wgt id='1594'> +2.5903690e+11 </wgt>
<wgt id='1595'> +2.5568055e+11 </wgt>
<wgt id='1596'> +2.6204820e+11 </wgt>
<wgt id='1597'> +2.5987120e+11 </wgt>
<wgt id='1598'> +2.6004044e+11 </wgt>
<wgt id='1599'> +2.5518654e+11 </wgt>
<wgt id='1600'> +2.6279082e+11 </wgt>
<wgt id='1601'> +2.6023815e+11 </wgt>
<wgt id='1602'> +2.5812949e+11 </wgt>
<wgt id='1603'> +2.7050474e+11 </wgt>
<wgt id='1604'> +2.5823522e+11 </wgt>
</rwgt>
</event>
<event>
 9      1 +2.8343000e+11 1.39999700e+03 7.81738600e-03 7.88881300e-02
       21 -1    0    0  504  503 +0.0000000000e+00 +0.0000000000e+00 +7.6329735449e+02 7.6329735449e+02 0.0000000000e+00 0.0000e+00 -1.0000e+00
       21 -1    0    0  503  504 -0.0000000000e+00 -0.0000000000e+00 -6.4194928494e+02 6.4194928494e+02 0.0000000000e+00 0.0000e+00 -1.0000e+00
       45  2    1    2    0    0 +0.0000000000e+00 -1.1368683772e-13 +1.2134806955e+02 1.4052466394e+03 1.3999974156e+03 0.0000e+00 0.0000e+00
       25  2    3    3    0    0 +3.6052501946e+02 -5.7594550144e+02 -6.7838053867e+01 6.9420302110e+02 1.2499729066e+02 0.0000e+00 0.0000e+00
       35  2    3    3    0    0 -3.6052501946e+02 +5.7594550144e+02 +1.8918612342e+02 7.1104361833e+02 9.0000708838e+01 0.0000e+00 0.0000e+00
        5  1    5    5  501    0 -2.1567172568e+02 +4.1638119362e+02 +1.4666922048e+02 4.9134225311e+02 4.2140000000e+00 0.0000e+00 1.0000e+00
       -5  1    5    5    0  501 -1.4485329378e+02 +1.5956430781e+02 +4.2516902935e+01 2.1970136522e+02 4.2140000000e+00 0.0000e+00 1.0000e+00
        5  1    4    4  502    0 +1.5124705869e+02 -1.9828770811e+02 +3.0729304292e+01 2.5130804979e+02 4.2140000000e+00 0.0000e+00 -1.0000e+00
       -5  1    4    4    0  502 +2.0927796077e+02 -3.7765779333e+02 -9.8567358159e+01 4.4289497132e+02 4.2140000000e+00 0.0000e+00 -1.0000e+00
<mgrwt>
<rscale>  0 0.13999974E+04</rscale>
<asrwt>0</asrwt>
<pdfrwt beam="1">  1       21 0.11743036E+00 0.13999974E+04</pdfrwt>
<pdfrwt beam="2">  1       21 0.98761429E-01 0.13999974E+04</pdfrwt>
<totfact> 0.35659844E+02</totfact>
</mgrwt>
<rwgt>
<wgt id='1001'> +2.8343000e+11 </wgt>
<wgt id='1002'> +2.8454849e+11 </wgt>
<wgt id='1003'> +2.8454833e+11 </wgt>
<wgt id='1004'> +3.1903287e+11 </wgt>
<wgt id='1005'> +2.8343000e+11 </wgt>
<wgt id='1006'> +2.8343000e+11 </wgt>
<wgt id='1007'> +2.8454849e+11 </wgt>
<wgt id='1008'> +2.8454833e+11 </wgt>
<wgt id='1009'> +3.1903287e+11 </wgt>
<wgt id='1010'> +2.8343000e+11 </wgt>
<wgt id='1011'> +2.8343000e+11 </wgt>
<wgt id='1012'> +2.8454849e+11 </wgt>
<wgt id='1013'> +2.8454833e+11 </wgt>
<wgt id='1014'> +3.1903287e+11 </wgt>
<wgt id='1015'> +2.8343000e+11 </wgt>
<wgt id='1016'> +2.5468086e+11 </wgt>
<wgt id='1017'> +2.5562891e+11 </wgt>
<wgt id='1018'> +2.5562877e+11 </wgt>
<wgt id='1019'> +2.8454833e+11 </wgt>
<wgt id='1020'> +2.5468086e+11 </wgt>
<wgt id='1021'> +2.5468086e+11 </wgt>
<wgt id='1022'> +2.5562891e+11 </wgt>
<wgt id='1023'> +2.5562877e+11 </wgt>
<wgt id='1024'> +2.8454833e+11 </wgt>
<wgt id='1025'> +2.5468086e+11 </wgt>
<wgt id='1026'> +2.5468086e+11 </wgt>
<wgt id='1027'> +2.5562891e+11 </wgt>
<wgt id='1028'> +2.5562877e+11 </wgt>
<wgt id='1029'> +2.8454833e+11 </wgt>
<wgt id='1030'> +2.5468086e+11 </wgt>
<wgt id='1031'> +3.1769097e+11 </wgt>
<wgt id='1032'> +3.1903306e+11 </wgt>
<wgt id='1033'> +3.1903287e+11 </wgt>
<wgt id='1034'> +3.6048887e+11 </wgt>
<wgt id='1035'> +3.1769097e+11 </wgt>
<wgt id='1036'> +3.1769097e+11 </wgt>
<wgt id='1037'> +3.1903306e+11 </wgt>
<wgt id='1038'> +3.1903287e+11 </wgt>
<wgt id='1039'> +3.6048887e+11 </wgt>
<wgt id='1040'> +3.1769097e+11 </wgt>
<wgt id='1041'> +3.1769097e+11 </wgt>
<wgt id='1042'> +3.1903306e+11 </wgt>
<wgt id='1043'> +3.1903287e+11 </wgt>
<wgt id='1044'> +3.6048887e+11 </wgt>
<wgt id='1045'> +3.1769097e+11 </wgt>
<wgt id='1046'> +2.8343000e+11 </wgt>
<wgt id='1047'> +2.8343000e+11 </wgt>
<wgt id='1048'> +2.8343000e+11 </wgt>
<wgt id='1049'> +2.8228217e+11 </wgt>
<wgt id='1050'> +2.8305545e+11 </wgt>
<wgt id='1051'> +2.8373784e+11 </wgt>
<wgt id='1052'> +2.8421039e+11 </wgt>
<wgt id='1053'> +2.8188907e+11 </wgt>
<wgt id='1054'> +2.8387870e+11 </wgt>
<wgt id='1055'> +2.8225055e+11 </wgt>
<wgt id='1056'> +2.8182065e+11 </wgt>
<wgt id='1057'> +2.8420009e+11 </wgt>
<wgt id='1058'> +2.8305035e+11 </wgt>
<wgt id='1059'> +2.8540872e+11 </wgt>
<wgt id='1060'> +2.8366061e+11 </wgt>
<wgt id='1061'> +2.8419956e+11 </wgt>
<wgt id='1062'> +2.8401677e+11 </wgt>
<wgt id='1063'> +2.8367282e+11 </wgt>
<wgt id='1064'> +2.8467952e+11 </wgt>
<wgt id='1065'> +2.8486735e+11 </wgt>
<wgt id='1066'> +2.8197043e+11 </wgt>
<wgt id='1067'> +2.7973825e+11 </wgt>
<wgt id='1068'> +2.8379694e+11 </wgt>
<wgt id='1069'> +2.8277481e+11 </wgt>
<wgt id='1070'> +2.8343742e+11 </wgt>
<wgt id='1071'> +2.8486809e+11 </wgt>
<wgt id='1072'> +2.8113490e+11 </wgt>
<wgt id='1073'> +2.8410720e+11 </wgt>
<wgt id='1074'> +2.8306549e+11 </wgt>
<wgt id='1075'> +2.8441409e+11 </wgt>
<wgt id='1076'> +2.8319112e+11 </wgt>
<wgt id='1077'> +2.8294015e+11 </wgt>
<wgt id='1078'> +2.8409971e+11 </wgt>
<wgt id='1079'> +2.8179515e+11 </wgt>
<wgt id='1080'> +2.8278355e+11 </wgt>
<wgt id='1081'> +2.8301897e+11 </wgt>
<wgt id='1082'> +2.8204726e+11 </wgt>
<wgt id='1083'> +2.8399300e+11 </wgt>
<wgt id='1084'> +2.8406952e+11 </wgt>
<wgt id='1085'> +2.8285388e+11 </wgt>
<wgt id='1086'> +2.8280958e+11 </wgt>
<wgt id='1087'> +2.8308220e+11 </wgt>
<wgt id='1088'> +2.8293907e+11 </wgt>
<wgt id='1089'> +2.8279815e+11 </wgt>
<wgt id='1090'> +2.8413444e+11 </wgt>
<wgt id='1091'> +2.8349185e+11 </wgt>
<wgt id='1092'> +2.8369739e+11 </wgt>
<wgt id='1093'> +2.8332524e+11 </wgt>
<wgt id='1094'> +2.8290478e+11 </wgt>
<wgt id='1095'> +2.8354669e+11 </wgt>
<wgt id='1096'> +2.8338170e+11 </wgt>
<wgt id='1097'> +2.8303545e+11 </wgt>
<wgt id='1098'> +2.8307682e+11 </wgt>
<wgt id='1099'> +2.8322965e+11 </wgt>
<wgt id='1100'> +2.8401968e+11 </wgt>
<wgt id='1101'> +2.8341068e+11 </wgt>
<wgt id='1102'> +2.8328459e+11 </wgt>
<wgt id='1103'> +2.8310365e+11 </wgt>
<wgt id='1104'> +2.8310363e+11 </wgt>
<wgt id='1105'> +2.8353830e+11 </wgt>
<wgt id='1106'> +2.8376426e+11 </wgt>
<wgt id='1107'> +2.8333903e+11 </wgt>
<wgt id='1108'> +2.8333717e+11 </wgt>
<wgt id='1109'> +2.8323898e+11 </wgt>
<wgt id='1110'> +2.8376058e+11 </wgt>
<wgt id='1111'> +2.8356046e+11 </wgt>
<wgt id='1112'> +2.8339732e+11 </wgt>
<wgt id='1113'> +2.8373854e+11 </wgt>
<wgt id='1114'> +2.8311170e+11 </wgt>
<wgt id='1115'> +2.8325572e+11 </wgt>
<wgt id='1116'> +2.8373622e+11 </wgt>
<wgt id='1117'> +2.8337322e+11 </wgt>
<wgt id='1118'> +2.8353325e+11 </wgt>
<wgt id='1119'> +2.8325389e+11 </wgt>
<wgt id='1120'> +2.8328530e+11 </wgt>
<wgt id='1121'> +2.8349706e+11 </wgt>
<wgt id='1122'> +2.8322713e+11 </wgt>
<wgt id='1123'> +2.8337342e+11 </wgt>
<wgt id='1124'> +2.8333831e+11 </wgt>
<wgt id='1125'> +2.8359010e+11 </wgt>
<wgt id='1126'> +2.8353584e+11 </wgt>
<wgt id='1127'> +2.8332202e+11 </wgt>
<wgt id='1128'> +2.8347290e+11 </wgt>
<wgt id='1129'> +2.8338985e+11 </wgt>
<wgt id='1130'> +2.8346476e+11 </wgt>
<wgt id='1131'> +2.8369656e+11 </wgt>
<wgt id='1132'> +2.8335243e+11 </wgt>
<wgt id='1133'> +2.8350641e+11 </wgt>
<wgt id='1134'> +2.8341042e+11 </wgt>
<wgt id='1135'> +2.8346843e+11 </wgt>
<wgt id='1136'> +2.8339916e+11 </wgt>
<wgt id='1137'> +2.8328749e+11 </wgt>
<wgt id='1138'> +2.8354296e+11 </wgt>
<wgt id='1139'> +2.8346798e+11 </wgt>
<wgt id='1140'> +2.8364232e+11 </wgt>
<wgt id='1141'> +2.8330468e+11 </wgt>
<wgt id='1142'> +2.8349968e+11 </wgt>
<wgt id='1143'> +2.8359399e+11 </wgt>
<wgt id='1144'> +2.8334514e+11 </wgt>
<wgt id='1145'> +2.8355332e+11 </wgt>
<wgt id='1146'> +2.8341048e+11 </wgt>
<wgt id='1147'> +2.8347449e+11 </wgt>
<wgt id='1148'> +2.8343000e+11 </wgt>
<wgt id='1149'> +2.8343000e+11 </wgt>
<wgt id='1150'> +2.9123792e+11 </wgt>
<wgt id='1151'> +2.8118321e+11 </wgt>
<wgt id='1152'> +2.8538136e+11 </wgt>
<wgt id='1153'> +2.8770335e+11 </wgt>
<wgt id='1154'> +2.8740373e+11 </wgt>
<wgt id='1155'> +2.8843048e+11 </wgt>
<wgt id='1156'> +2.7654393e+11 </wgt>
<wgt id='1157'> +2.7663415e+11 </wgt>
<wgt id='1158'> +2.7764395e+11 </wgt>
<wgt id='1159'> +2.9624391e+11 </wgt>
<wgt id='1160'> +2.8161273e+11 </wgt>
<wgt id='1161'> +2.8554058e+11 </wgt>
<wgt id='1162'> +2.7635367e+11 </wgt>
<wgt id='1163'> +2.8684526e+11 </wgt>
<wgt id='1164'> +2.6761738e+11 </wgt>
<wgt id='1165'> +2.7933401e+11 </wgt>
<wgt id='1166'> +2.8501351e+11 </wgt>
<wgt id='1167'> +2.7992212e+11 </wgt>
<wgt id='1168'> +2.7653731e+11 </wgt>
<wgt id='1169'> +2.7596756e+11 </wgt>
<wgt id='1170'> +2.7605128e+11 </wgt>
<wgt id='1171'> +2.7347050e+11 </wgt>
<wgt id='1172'> +2.7754276e+11 </wgt>
<wgt id='1173'> +2.8797877e+11 </wgt>
<wgt id='1174'> +2.7965551e+11 </wgt>
<wgt id='1175'> +2.7524655e+11 </wgt>
<wgt id='1176'> +2.8638488e+11 </wgt>
<wgt id='1177'> +2.7925914e+11 </wgt>
<wgt id='1178'> +2.8315433e+11 </wgt>
<wgt id='1179'> +2.8027648e+11 </wgt>
<wgt id='1180'> +2.8382457e+11 </wgt>
<wgt id='1181'> +2.7641031e+11 </wgt>
<wgt id='1182'> +2.8163282e+11 </wgt>
<wgt id='1183'> +2.9571713e+11 </wgt>
<wgt id='1184'> +2.7627920e+11 </wgt>
<wgt id='1185'> +2.8071805e+11 </wgt>
<wgt id='1186'> +2.7170554e+11 </wgt>
<wgt id='1187'> +2.8573122e+11 </wgt>
<wgt id='1188'> +2.7717335e+11 </wgt>
<wgt id='1189'> +2.8559176e+11 </wgt>
<wgt id='1190'> +2.8422120e+11 </wgt>
<wgt id='1191'> +2.9518332e+11 </wgt>
<wgt id='1192'> +2.9183769e+11 </wgt>
<wgt id='1193'> +2.9536000e+11 </wgt>
<wgt id='1194'> +2.8462012e+11 </wgt>
<wgt id='1195'> +2.8377227e+11 </wgt>
<wgt id='1196'> +2.9236491e+11 </wgt>
<wgt id='1197'> +2.9405832e+11 </wgt>
<wgt id='1198'> +2.7537225e+11 </wgt>
<wgt id='1199'> +2.8199686e+11 </wgt>
<wgt id='1200'> +2.8231644e+11 </wgt>
<wgt id='1201'> +2.7934770e+11 </wgt>
<wgt id='1202'> +2.8865933e+11 </wgt>
<wgt id='1203'> +2.7763206e+11 </wgt>
<wgt id='1204'> +2.8831171e+11 </wgt>
<wgt id='1205'> +2.8510916e+11 </wgt>
<wgt id='1206'> +2.7649787e+11 </wgt>
<wgt id='1207'> +2.9313535e+11 </wgt>
<wgt id='1208'> +2.7284875e+11 </wgt>
<wgt id='1209'> +2.7866754e+11 </wgt>
<wgt id='1210'> +2.8035376e+11 </wgt>
<wgt id='1211'> +2.8573601e+11 </wgt>
<wgt id='1212'> +2.8367220e+11 </wgt>
<wgt id='1213'> +2.9342685e+11 </wgt>
<wgt id='1214'> +2.7572097e+11 </wgt>
<wgt id='1215'> +2.9200629e+11 </wgt>
<wgt id='1216'> +2.8603467e+11 </wgt>
<wgt id='1217'> +2.7592628e+11 </wgt>
<wgt id='1218'> +2.8478461e+11 </wgt>
<wgt id='1219'> +2.9441350e+11 </wgt>
<wgt id='1220'> +2.7708435e+11 </wgt>
<wgt id='1221'> +2.7504695e+11 </wgt>
<wgt id='1222'> +2.8039950e+11 </wgt>
<wgt id='1223'> +2.7260543e+11 </wgt>
<wgt id='1224'> +2.8352567e+11 </wgt>
<wgt id='1225'> +2.8810839e+11 </wgt>
<wgt id='1226'> +2.9066494e+11 </wgt>
<wgt id='1227'> +2.7304965e+11 </wgt>
<wgt id='1228'> +2.8138276e+11 </wgt>
<wgt id='1229'> +3.0283303e+11 </wgt>
<wgt id='1230'> +2.9416098e+11 </wgt>
<wgt id='1231'> +2.7933401e+11 </wgt>
<wgt id='1232'> +2.8913149e+11 </wgt>
<wgt id='1233'> +2.7815961e+11 </wgt>
<wgt id='1234'> +2.7636088e+11 </wgt>
<wgt id='1235'> +3.0303057e+11 </wgt>
<wgt id='1236'> +2.7660114e+11 </wgt>
<wgt id='1237'> +2.8984006e+11 </wgt>
<wgt id='1238'> +2.8965567e+11 </wgt>
<wgt id='1239'> +2.9205961e+11 </wgt>
<wgt id='1240'> +2.8551486e+11 </wgt>
<wgt id='1241'> +2.8201245e+11 </wgt>
<wgt id='1242'> +2.8075532e+11 </wgt>
<wgt id='1243'> +2.8896163e+11 </wgt>
<wgt id='1244'> +2.8123737e+11 </wgt>
<wgt id='1245'> +2.8181984e+11 </wgt>
<wgt id='1246'> +3.0723778e+11 </wgt>
<wgt id='1247'> +2.8371717e+11 </wgt>
<wgt id='1248'> +2.7536612e+11 </wgt>
<wgt id='1249'> +2.7765623e+11 </wgt>
<wgt id='1250'> +2.9212984e+11 </wgt>
<wgt id='1251'> +2.9878667e+11 </wgt>
<wgt id='1252'> +2.8725457e+11 </wgt>
<wgt id='1253'> +2.8533455e+11 </wgt>
<wgt id='1254'> +2.8871395e+11 </wgt>
<wgt id='1255'> +2.9809987e+11 </wgt>
<wgt id='1256'> +2.9540782e+11 </wgt>
<wgt id='1257'> +2.8569745e+11 </wgt>
<wgt id='1258'> +3.0029566e+11 </wgt>
<wgt id='1259'> +2.9480507e+11 </wgt>
<wgt id='1260'> +3.2555327e+11 </wgt>
<wgt id='1261'> +3.1384053e+11 </wgt>
<wgt id='1262'> +2.8972098e+11 </wgt>
<wgt id='1263'> +2.9679767e+11 </wgt>
<wgt id='1264'> +2.9862733e+11 </wgt>
<wgt id='1265'> +2.9877238e+11 </wgt>
<wgt id='1266'> +2.9443640e+11 </wgt>
<wgt id='1267'> +3.1560394e+11 </wgt>
<wgt id='1268'> +2.9427552e+11 </wgt>
<wgt id='1269'> +2.8727675e+11 </wgt>
<wgt id='1270'> +2.9146894e+11 </wgt>
<wgt id='1271'> +2.7945394e+11 </wgt>
<wgt id='1272'> +2.9341076e+11 </wgt>
<wgt id='1273'> +2.9196581e+11 </wgt>
<wgt id='1274'> +2.8770765e+11 </wgt>
<wgt id='1275'> +2.9858407e+11 </wgt>
<wgt id='1276'> +2.9556419e+11 </wgt>
<wgt id='1277'> +2.9093260e+11 </wgt>
<wgt id='1278'> +2.8664139e+11 </wgt>
<wgt id='1279'> +2.8127059e+11 </wgt>
<wgt id='1280'> +2.9390611e+11 </wgt>
<wgt id='1281'> +2.8589594e+11 </wgt>
<wgt id='1282'> +2.9669244e+11 </wgt>
<wgt id='1283'> +2.9628685e+11 </wgt>
<wgt id='1284'> +3.1486267e+11 </wgt>
<wgt id='1285'> +3.0827329e+11 </wgt>
<wgt id='1286'> +3.2875507e+11 </wgt>
<wgt id='1287'> +3.0333996e+11 </wgt>
<wgt id='1288'> +3.2368114e+11 </wgt>
<wgt id='1289'> +3.1305561e+11 </wgt>
<wgt id='1290'> +3.1147438e+11 </wgt>
<wgt id='1291'> +2.7798511e+11 </wgt>
<wgt id='1292'> +2.9748452e+11 </wgt>
<wgt id='1293'> +3.0023557e+11 </wgt>
<wgt id='1294'> +3.1446255e+11 </wgt>
<wgt id='1295'> +2.9828790e+11 </wgt>
<wgt id='1296'> +3.1544811e+11 </wgt>
<wgt id='1297'> +2.9558474e+11 </wgt>
<wgt id='1298'> +2.8782924e+11 </wgt>
<wgt id='1299'> +2.9864686e+11 </wgt>
<wgt id='1300'> +2.8809226e+11 </wgt>
<wgt id='1301'> +2.8099836e+11 </wgt>
<wgt id='1302'> +2.7580662e+11 </wgt>
<wgt id='1303'> +2.9846198e+11 </wgt>
<wgt id='1304'> +3.0610115e+11 </wgt>
<wgt id='1305'> +2.9839365e+11 </wgt>
<wgt id='1306'> +3.0526652e+11 </wgt>
<wgt id='1307'> +3.0376464e+11 </wgt>
<wgt id='1308'> +3.2538658e+11 </wgt>
<wgt id='1309'> +2.9587708e+11 </wgt>
<wgt id='1310'> +3.0226198e+11 </wgt>
<wgt id='1311'> +3.0804622e+11 </wgt>
<wgt id='1312'> +2.9918384e+11 </wgt>
<wgt id='1313'> +2.9693078e+11 </wgt>
<wgt id='1314'> +3.0424662e+11 </wgt>
<wgt id='1315'> +2.8496475e+11 </wgt>
<wgt id='1316'> +2.9858123e+11 </wgt>
<wgt id='1317'> +3.0138105e+11 </wgt>
<wgt id='1318'> +2.8642945e+11 </wgt>
<wgt id='1319'> +3.0779838e+11 </wgt>
<wgt id='1320'> +3.0909246e+11 </wgt>
<wgt id='1321'> +2.9379036e+11 </wgt>
<wgt id='1322'> +2.9787387e+11 </wgt>
<wgt id='1323'> +2.9869578e+11 </wgt>
<wgt id='1324'> +3.0131977e+11 </wgt>
<wgt id='1325'> +3.1097955e+11 </wgt>
<wgt id='1326'> +3.0289949e+11 </wgt>
<wgt id='1327'> +2.9353228e+11 </wgt>
<wgt id='1328'> +3.0268619e+11 </wgt>
<wgt id='1329'> +2.9781015e+11 </wgt>
<wgt id='1330'> +2.9078482e+11 </wgt>
<wgt id='1331'> +3.1927855e+11 </wgt>
<wgt id='1332'> +2.8608245e+11 </wgt>
<wgt id='1333'> +3.0059873e+11 </wgt>
<wgt id='1334'> +3.1392979e+11 </wgt>
<wgt id='1335'> +2.9257654e+11 </wgt>
<wgt id='1336'> +3.0233754e+11 </wgt>
<wgt id='1337'> +3.0852858e+11 </wgt>
<wgt id='1338'> +2.8989292e+11 </wgt>
<wgt id='1339'> +3.2039068e+11 </wgt>
<wgt id='1340'> +3.0168576e+11 </wgt>
<wgt id='1341'> +3.0488059e+11 </wgt>
<wgt id='1342'> +3.1567292e+11 </wgt>
<wgt id='1343'> +3.1033486e+11 </wgt>
<wgt id='1344'> +3.0344383e+11 </wgt>
<wgt id='1345'> +2.8012989e+11 </wgt>
<wgt id='1346'> +2.9954466e+11 </wgt>
<wgt id='1347'> +2.8685176e+11 </wgt>
<wgt id='1348'> +2.8808095e+11 </wgt>
<wgt id='1349'> +2.8990159e+11 </wgt>
<wgt id='1350'> +3.0050052e+11 </wgt>
<wgt id='1351'> +2.9684323e+11 </wgt>
<wgt id='1352'> +3.0052630e+11 </wgt>
<wgt id='1353'> +2.9720753e+11 </wgt>
<wgt id='1354'> +3.0695858e+11 </wgt>
<wgt id='1355'> +2.7545568e+11 </wgt>
<wgt id='1356'> +2.7820961e+11 </wgt>
<wgt id='1357'> +2.7634516e+11 </wgt>
<wgt id='1358'> +2.7286755e+11 </wgt>
<wgt id='1359'> +2.7621923e+11 </wgt>
<wgt id='1360'> +2.6866689e+11 </wgt>
<wgt id='1361'> +2.7550103e+11 </wgt>
<wgt id='1362'> +2.7727875e+11 </wgt>
<wgt id='1363'> +2.6931104e+11 </wgt>
<wgt id='1364'> +2.8172711e+11 </wgt>
<wgt id='1365'> +2.7312656e+11 </wgt>
<wgt id='1366'> +2.7560493e+11 </wgt>
<wgt id='1367'> +2.7631046e+11 </wgt>
<wgt id='1368'> +2.7549195e+11 </wgt>
<wgt id='1369'> +2.7976430e+11 </wgt>
<wgt id='1370'> +2.7358396e+11 </wgt>
<wgt id='1371'> +2.7312643e+11 </wgt>
<wgt id='1372'> +2.7997530e+11 </wgt>
<wgt id='1373'> +2.7910329e+11 </wgt>
<wgt id='1374'> +2.6735644e+11 </wgt>
<wgt id='1375'> +2.7434153e+11 </wgt>
<wgt id='1376'> +2.7635871e+11 </wgt>
<wgt id='1377'> +2.7537218e+11 </wgt>
<wgt id='1378'> +2.7124296e+11 </wgt>
<wgt id='1379'> +2.7392399e+11 </wgt>
<wgt id='1380'> +2.7388023e+11 </wgt>
<wgt id='1381'> +2.8077351e+11 </wgt>
<wgt id='1382'> +2.7508908e+11 </wgt>
<wgt id='1383'> +2.7543113e+11 </wgt>
<wgt id='1384'> +2.7382534e+11 </wgt>
<wgt id='1385'> +2.7400735e+11 </wgt>
<wgt id='1386'> +2.7742569e+11 </wgt>
<wgt id='1387'> +2.7446088e+11 </wgt>
<wgt id='1388'> +2.7175779e+11 </wgt>
<wgt id='1389'> +2.7375436e+11 </wgt>
<wgt id='1390'> +2.7438473e+11 </wgt>
<wgt id='1391'> +2.7319422e+11 </wgt>
<wgt id='1392'> +2.7329926e+11 </wgt>
<wgt id='1393'> +2.7342871e+11 </wgt>
<wgt id='1394'> +2.7315435e+11 </wgt>
<wgt id='1395'> +2.7120777e+11 </wgt>
<wgt id='1396'> +2.7649873e+11 </wgt>
<wgt id='1397'> +2.7605698e+11 </wgt>
<wgt id='1398'> +2.7607061e+11 </wgt>
<wgt id='1399'> +2.7105721e+11 </wgt>
<wgt id='1400'> +2.7252377e+11 </wgt>
<wgt id='1401'> +2.7395297e+11 </wgt>
<wgt id='1402'> +2.7871233e+11 </wgt>
<wgt id='1403'> +2.7853813e+11 </wgt>
<wgt id='1404'> +2.7323398e+11 </wgt>
<wgt id='1405'> +2.8156785e+11 </wgt>
<wgt id='1406'> +2.7519057e+11 </wgt>
<wgt id='1407'> +2.7616366e+11 </wgt>
<wgt id='1408'> +2.7861814e+11 </wgt>
<wgt id='1409'> +2.7337884e+11 </wgt>
<wgt id='1410'> +2.7317592e+11 </wgt>
<wgt id='1411'> +2.7513811e+11 </wgt>
<wgt id='1412'> +2.7434786e+11 </wgt>
<wgt id='1413'> +2.7236438e+11 </wgt>
<wgt id='1414'> +2.7716006e+11 </wgt>
<wgt id='1415'> +2.8126745e+11 </wgt>
<wgt id='1416'> +2.7860441e+11 </wgt>
<wgt id='1417'> +2.6873430e+11 </wgt>
<wgt id='1418'> +2.7713430e+11 </wgt>
<wgt id='1419'> +2.7898881e+11 </wgt>
<wgt id='1420'> +2.7469510e+11 </wgt>
<wgt id='1421'> +2.8150865e+11 </wgt>
<wgt id='1422'> +2.6786818e+11 </wgt>
<wgt id='1423'> +2.8070450e+11 </wgt>
<wgt id='1424'> +2.7647139e+11 </wgt>
<wgt id='1425'> +2.7566421e+11 </wgt>
<wgt id='1426'> +2.7902052e+11 </wgt>
<wgt id='1427'> +2.7542122e+11 </wgt>
<wgt id='1428'> +2.7531190e+11 </wgt>
<wgt id='1429'> +2.7127854e+11 </wgt>
<wgt id='1430'> +2.7070798e+11 </wgt>
<wgt id='1431'> +2.7076279e+11 </wgt>
<wgt id='1432'> +2.7740597e+11 </wgt>
<wgt id='1433'> +2.7612035e+11 </wgt>
<wgt id='1434'> +2.8213500e+11 </wgt>
<wgt id='1435'> +2.7459310e+11 </wgt>
<wgt id='1436'> +2.7962468e+11 </wgt>
<wgt id='1437'> +2.7817373e+11 </wgt>
<wgt id='1438'> +2.7348202e+11 </wgt>
<wgt id='1439'> +2.7614658e+11 </wgt>
<wgt id='1440'> +2.8006971e+11 </wgt>
<wgt id='1441'> +2.7538731e+11 </wgt>
<wgt id='1442'> +2.8312613e+11 </wgt>
<wgt id='1443'> +2.7363494e+11 </wgt>
<wgt id='1444'> +2.7374065e+11 </wgt>
<wgt id='1445'> +2.7844053e+11 </wgt>
<wgt id='1446'> +2.7765805e+11 </wgt>
<wgt id='1447'> +2.7144374e+11 </wgt>
<wgt id='1448'> +2.7781255e+11 </wgt>
<wgt id='1449'> +2.7678824e+11 </wgt>
<wgt id='1450'> +2.7356314e+11 </wgt>
<wgt id='1451'> +2.7669982e+11 </wgt>
<wgt id='1452'> +2.7865416e+11 </wgt>
<wgt id='1453'> +2.8053206e+11 </wgt>
<wgt id='1454'> +2.6884033e+11 </wgt>
<wgt id='1455'> +2.7469903e+11 </wgt>
<wgt id='1456'> +2.7469435e+11 </wgt>
<wgt id='1457'> +2.7423163e+11 </wgt>
<wgt id='1458'> +2.7732355e+11 </wgt>
<wgt id='1459'> +3.0478051e+11 </wgt>
<wgt id='1460'> +3.0010819e+11 </wgt>
<wgt id='1461'> +3.4712391e+11 </wgt>
<wgt id='1462'> +2.9959155e+11 </wgt>
<wgt id='1463'> +2.9984176e+11 </wgt>
<wgt id='1464'> +2.9927068e+11 </wgt>
<wgt id='1465'> +2.9965291e+11 </wgt>
<wgt id='1466'> +2.9953551e+11 </wgt>
<wgt id='1467'> +2.9975510e+11 </wgt>
<wgt id='1468'> +2.9932324e+11 </wgt>
<wgt id='1469'> +2.9914084e+11 </wgt>
<wgt id='1470'> +2.9995763e+11 </wgt>
<wgt id='1471'> +3.0007039e+11 </wgt>
<wgt id='1472'> +2.9909836e+11 </wgt>
<wgt id='1473'> +3.0074158e+11 </wgt>
<wgt id='1474'> +2.9848697e+11 </wgt>
<wgt id='1475'> +3.0068929e+11 </wgt>
<wgt id='1476'> +2.9881327e+11 </wgt>
<wgt id='1477'> +2.9901780e+11 </wgt>
<wgt id='1478'> +3.0093178e+11 </wgt>
<wgt id='1479'> +2.9901350e+11 </wgt>
<wgt id='1480'> +2.9999502e+11 </wgt>
<wgt id='1481'> +2.9917176e+11 </wgt>
<wgt id='1482'> +3.0015761e+11 </wgt>
<wgt id='1483'> +2.9968992e+11 </wgt>
<wgt id='1484'> +2.9945184e+11 </wgt>
<wgt id='1485'> +2.9979255e+11 </wgt>
<wgt id='1486'> +2.9910753e+11 </wgt>
<wgt id='1487'> +2.9983997e+11 </wgt>
<wgt id='1488'> +2.9927905e+11 </wgt>
<wgt id='1489'> +2.9924050e+11 </wgt>
<wgt id='1490'> +3.0054323e+11 </wgt>
<wgt id='1491'> +3.0451067e+11 </wgt>
<wgt id='1492'> +2.9684584e+11 </wgt>
<wgt id='1493'> +2.9609597e+11 </wgt>
<wgt id='1494'> +3.1054653e+11 </wgt>
<wgt id='1495'> +2.9895991e+11 </wgt>
<wgt id='1496'> +3.0026903e+11 </wgt>
<wgt id='1497'> +2.9979042e+11 </wgt>
<wgt id='1498'> +2.9931975e+11 </wgt>
<wgt id='1499'> +3.0145658e+11 </wgt>
<wgt id='1500'> +2.9857121e+11 </wgt>
<wgt id='1501'> +3.0005777e+11 </wgt>
<wgt id='1502'> +2.9835582e+11 </wgt>
<wgt id='1503'> +2.9647163e+11 </wgt>
<wgt id='1504'> +3.0289832e+11 </wgt>
<wgt id='1505'> +3.0062393e+11 </wgt>
<wgt id='1506'> +2.9860048e+11 </wgt>
<wgt id='1507'> +3.0086508e+11 </wgt>
<wgt id='1508'> +2.9892638e+11 </wgt>
<wgt id='1509'> +3.0016196e+11 </wgt>
<wgt id='1510'> +2.9714376e+11 </wgt>
<wgt id='1511'> +3.0069698e+11 </wgt>
<wgt id='1512'> +2.9928067e+11 </wgt>
<wgt id='1513'> +2.9951325e+11 </wgt>
<wgt id='1514'> +2.9966198e+11 </wgt>
<wgt id='1515'> +3.0197915e+11 </wgt>
<wgt id='1516'> +3.0006487e+11 </wgt>
<wgt id='1517'> +2.9922150e+11 </wgt>
<wgt id='1518'> +2.9989155e+11 </wgt>
<wgt id='1519'> +2.9797181e+11 </wgt>
<wgt id='1520'> +3.0074450e+11 </wgt>
<wgt id='1521'> +2.9883364e+11 </wgt>
<wgt id='1522'> +3.0004735e+11 </wgt>
<wgt id='1523'> +3.0096142e+11 </wgt>
<wgt id='1524'> +3.0094016e+11 </wgt>
<wgt id='1525'> +3.0083944e+11 </wgt>
<wgt id='1526'> +3.0035799e+11 </wgt>
<wgt id='1527'> +2.9959155e+11 </wgt>
<wgt id='1528'> +2.9942818e+11 </wgt>
<wgt id='1529'> +2.9922382e+11 </wgt>
<wgt id='1530'> +2.9546107e+11 </wgt>
<wgt id='1531'> +2.9627327e+11 </wgt>
<wgt id='1532'> +2.9388430e+11 </wgt>
<wgt id='1533'> +2.9188086e+11 </wgt>
<wgt id='1534'> +2.9465999e+11 </wgt>
<wgt id='1535'> +2.9874540e+11 </wgt>
<wgt id='1536'> +2.9321458e+11 </wgt>
<wgt id='1537'> +2.9616396e+11 </wgt>
<wgt id='1538'> +2.9310913e+11 </wgt>
<wgt id='1539'> +3.0250304e+11 </wgt>
<wgt id='1540'> +2.9541016e+11 </wgt>
<wgt id='1541'> +2.9639368e+11 </wgt>
<wgt id='1542'> +2.9617770e+11 </wgt>
<wgt id='1543'> +2.9730599e+11 </wgt>
<wgt id='1544'> +2.9437185e+11 </wgt>
<wgt id='1545'> +2.9431668e+11 </wgt>
<wgt id='1546'> +2.9237586e+11 </wgt>
<wgt id='1547'> +2.9856656e+11 </wgt>
<wgt id='1548'> +2.9426511e+11 </wgt>
<wgt id='1549'> +2.9293578e+11 </wgt>
<wgt id='1550'> +2.9687580e+11 </wgt>
<wgt id='1551'> +2.9691807e+11 </wgt>
<wgt id='1552'> +2.9559182e+11 </wgt>
<wgt id='1553'> +2.9807446e+11 </wgt>
<wgt id='1554'> +2.9611403e+11 </wgt>
<wgt id='1555'> +2.9687275e+11 </wgt>
<wgt id='1556'> +2.9863334e+11 </wgt>
<wgt id='1557'> +2.9555338e+11 </wgt>
<wgt id='1558'> +2.9625085e+11 </wgt>
<wgt id='1559'> +2.9425269e+11 </wgt>
<wgt id='1560'> +2.9505782e+11 </wgt>
<wgt id='1561'> +2.9232765e+11 </wgt>
<wgt id='1562'> +2.9483580e+11 </wgt>
<wgt id='1563'> +2.9619665e+11 </wgt>
<wgt id='1564'> +2.9588979e+11 </wgt>
<wgt id='1565'> +2.9846382e+11 </wgt>
<wgt id='1566'> +2.9656716e+11 </wgt>
<wgt id='1567'> +2.9983681e+11 </wgt>
<wgt id='1568'> +2.9621730e+11 </wgt>
<wgt id='1569'> +2.9591123e+11 </wgt>
<wgt id='1570'> +2.9795944e+11 </wgt>
<wgt id='1571'> +2.9606568e+11 </wgt>
<wgt id='1572'> +2.9797579e+11 </wgt>
<wgt id='1573'> +2.9906431e+11 </wgt>
<wgt id='1574'> +2.6519344e+11 </wgt>
<wgt id='1575'> +2.6526575e+11 </wgt>
<wgt id='1576'> +2.6512573e+11 </wgt>
<wgt id='1577'> +2.6521172e+11 </wgt>
<wgt id='1578'> +2.6580377e+11 </wgt>
<wgt id='1579'> +2.6606051e+11 </wgt>
<wgt id='1580'> +2.6583294e+11 </wgt>
<wgt id='1581'> +2.6456388e+11 </wgt>
<wgt id='1582'> +2.6425572e+11 </wgt>
<wgt id='1583'> +2.6475318e+11 </wgt>
<wgt id='1584'> +2.6577244e+11 </wgt>
<wgt id='1585'> +2.6538139e+11 </wgt>
<wgt id='1586'> +2.6416588e+11 </wgt>
<wgt id='1587'> +2.6442387e+11 </wgt>
<wgt id='1588'> +2.6391927e+11 </wgt>
<wgt id='1589'> +2.6494375e+11 </wgt>
<wgt id='1590'> +2.6500483e+11 </wgt>
<wgt id='1591'> +2.6526107e+11 </wgt>
<wgt id='1592'> +2.6416000e+11 </wgt>
<wgt id='1593'> +2.6433053e+11 </wgt>
<wgt id='1594'> +2.6600333e+11 </wgt>
<wgt id='1595'> +2.6296571e+11 </wgt>
<wgt id='1596'> +2.6876374e+11 </wgt>
<wgt id='1597'> +2.6692534e+11 </wgt>
<wgt id='1598'> +2.6715304e+11 </wgt>
<wgt id='1599'> +2.6245567e+11 </wgt>
<wgt id='1600'> +2.6960830e+11 </wgt>
<wgt id='1601'> +2.6733579e+11 </wgt>
<wgt id='1602'> +2.6525104e+11 </wgt>
<wgt id='1603'> +2.7556514e+11 </wgt>
<wgt id='1604'> +2.6524668e+11 </wgt>
</rwgt>
</event>
<event>
 9      1 +2.8343000e+11 1.40000200e+03 7.81738600e-03 7.88881000e-02
       21 -1    0    0  504  503 +0.0000000000e+00 +0.0000000000e+00 +3.5529808828e+02 3.5529808828e+02 0.0000000000e+00 0.0000e+00 -1.0000e+00
       21 -1    0    0  503  504 -0.0000000000e+00 -0.0000000000e+00 -1.3791279604e+03 1.3791279604e+03 0.0000000000e+00 0.0000e+00 -1.0000e+00
       45  2    1    2    0    0 +0.0000000000e+00 +0.0000000000e+00 -1.0238298721e+03 1.7344260487e+03 1.4000021826e+03 0.0000e+00 0.0000e+00
       25  2    3    3    0    0 -3.2541223681e+02 +3.9023555907e+02 -1.0949229536e+03 1.2135311095e+03 1.2499825625e+02 0.0000e+00 0.0000e+00
       35  2    3    3    0    0 +3.2541223681e+02 -3.9023555907e+02 +7.1093081467e+01 5.2089493916e+02 9.0002199894e+01 0.0000e+00 0.0000e+00
        5  1    5    5  501    0 +9.1856439991e+01 -1.7818910381e+02 +2.5329587406e+01 2.0210964370e+02 4.2140000000e+00 0.0000e+00 -1.0000e+00
       -5  1    5    5    0  501 +2.3355579682e+02 -2.1204645526e+02 +4.5763494061e+01 3.1878529546e+02 4.2140000000e+00 0.0000e+00 -1.0000e+00
        5  1    4    4  502    0 -1.7571417096e+02 +1.5496431431e+02 -3.8382471976e+02 4.4969832319e+02 4.2140000000e+00 0.0000e+00 1.0000e+00
       -5  1    4    4    0  502 -1.4969806585e+02 +2.3527124475e+02 -7.1109823383e+02 7.6383278633e+02 4.2140000000e+00 0.0000e+00 1.0000e+00
<mgrwt>
<rscale>  0 0.14000022E+04</rscale>
<asrwt>0</asrwt>
<pdfrwt beam="1">  1       21 0.54661243E-01 0.14000022E+04</pdfrwt>
<pdfrwt beam="2">  1       21 0.21217354E+00 0.14000022E+04</pdfrwt>
<totfact> 0.23618371E+02</totfact>
</mgrwt>
<rwgt>
<wgt id='1001'> +2.8343000e+11 </wgt>
<wgt id='1002'> +2.9849262e+11 </wgt>
<wgt id='1003'> +2.9848982e+11 </wgt>
<wgt id='1004'> +3.3738327e+11 </wgt>
<wgt id='1005'> +2.8343000e+11 </wgt>
<wgt id='1006'> +2.8343000e+11 </wgt>
<wgt id='1007'> +2.9849262e+11 </wgt>
<wgt id='1008'> +2.9848982e+11 </wgt>
<wgt id='1009'> +3.3738327e+11 </wgt>
<wgt id='1010'> +2.8343000e+11 </wgt>
<wgt id='1011'> +2.8343000e+11 </wgt>
<wgt id='1012'> +2.9849262e+11 </wgt>
<wgt id='1013'> +2.9848982e+11 </wgt>
<wgt id='1014'> +3.3738327e+11 </wgt>
<wgt id='1015'> +2.8343000e+11 </wgt>
<wgt id='1016'> +2.5352686e+11 </wgt>
<wgt id='1017'> +2.6616354e+11 </wgt>
<wgt id='1018'> +2.6616120e+11 </wgt>
<wgt id='1019'> +2.9848982e+11 </wgt>
<wgt id='1020'> +2.5352686e+11 </wgt>
<wgt id='1021'> +2.5352686e+11 </wgt>
<wgt id='1022'> +2.6616354e+11 </wgt>
<wgt id='1023'> +2.6616120e+11 </wgt>
<wgt id='1024'> +2.9848982e+11 </wgt>
<wgt id='1025'> +2.5352686e+11 </wgt>
<wgt id='1026'> +2.5352686e+11 </wgt>
<wgt id='1027'> +2.6616354e+11 </wgt>
<wgt id='1028'> +2.6616120e+11 </wgt>
<wgt id='1029'> +2.9848982e+11 </wgt>
<wgt id='1030'> +2.5352686e+11 </wgt>
<wgt id='1031'> +3.1922029e+11 </wgt>
<wgt id='1032'> +3.3738665e+11 </wgt>
<wgt id='1033'> +3.3738327e+11 </wgt>
<wgt id='1034'> +3.8467572e+11 </wgt>
<wgt id='1035'> +3.1922029e+11 </wgt>
<wgt id='1036'> +3.1922029e+11 </wgt>
<wgt id='1037'> +3.3738665e+11 </wgt>
<wgt id='1038'> +3.3738327e+11 </wgt>
<wgt id='1039'> +3.8467572e+11 </wgt>
<wgt id='1040'> +3.1922029e+11 </wgt>
<wgt id='1041'> +3.1922029e+11 </wgt>
<wgt id='1042'> +3.3738665e+11 </wgt>
<wgt id='1043'> +3.3738327e+11 </wgt>
<wgt id='1044'> +3.8467572e+11 </wgt>
<wgt id='1045'> +3.1922029e+11 </wgt>
<wgt id='1046'> +2.8343000e+11 </wgt>
<wgt id='1047'> +2.8343000e+11 </wgt>
<wgt id='1048'> +2.8343000e+11 </wgt>
<wgt id='1049'> +2.8300739e+11 </wgt>
<wgt id='1050'> +2.8318035e+11 </wgt>
<wgt id='1051'> +2.8340266e+11 </wgt>
<wgt id='1052'> +2.8414278e+11 </wgt>
<wgt id='1053'> +2.8155541e+11 </wgt>
<wgt id='1054'> +2.8383786e+11 </wgt>
<wgt id='1055'> +2.8209930e+11 </wgt>
<wgt id='1056'> +2.8204730e+11 </wgt>
<wgt id='1057'> +2.8269751e+11 </wgt>
<wgt id='1058'> +2.8257413e+11 </wgt>
<wgt id='1059'> +2.8555993e+11 </wgt>
<wgt id='1060'> +2.8371588e+11 </wgt>
<wgt id='1061'> +2.8398907e+11 </wgt>
<wgt id='1062'> +2.8428074e+11 </wgt>
<wgt id='1063'> +2.8472300e+11 </wgt>
<wgt id='1064'> +2.8409210e+11 </wgt>
<wgt id='1065'> +2.8484876e+11 </wgt>
<wgt id='1066'> +2.8154053e+11 </wgt>
<wgt id='1067'> +2.8241727e+11 </wgt>
<wgt id='1068'> +2.8390596e+11 </wgt>
<wgt id='1069'> +2.8252546e+11 </wgt>
<wgt id='1070'> +2.8410431e+11 </wgt>
<wgt id='1071'> +2.8264219e+11 </wgt>
<wgt id='1072'> +2.8370394e+11 </wgt>
<wgt id='1073'> +2.8229441e+11 </wgt>
<wgt id='1074'> +2.8245933e+11 </wgt>
<wgt id='1075'> +2.8380689e+11 </wgt>
<wgt id='1076'> +2.8171626e+11 </wgt>
<wgt id='1077'> +2.8202481e+11 </wgt>
<wgt id='1078'> +2.8404744e+11 </wgt>
<wgt id='1079'> +2.8225602e+11 </wgt>
<wgt id='1080'> +2.8298989e+11 </wgt>
<wgt id='1081'> +2.8304677e+11 </wgt>
<wgt id='1082'> +2.8237511e+11 </wgt>
<wgt id='1083'> +2.8448034e+11 </wgt>
<wgt id='1084'> +2.8403102e+11 </wgt>
<wgt id='1085'> +2.8263936e+11 </wgt>
<wgt id='1086'> +2.8352805e+11 </wgt>
<wgt id='1087'> +2.8347458e+11 </wgt>
<wgt id='1088'> +2.8291076e+11 </wgt>
<wgt id='1089'> +2.8247866e+11 </wgt>
<wgt id='1090'> +2.8407170e+11 </wgt>
<wgt id='1091'> +2.8362231e+11 </wgt>
<wgt id='1092'> +2.8361726e+11 </wgt>
<wgt id='1093'> +2.8348723e+11 </wgt>
<wgt id='1094'> +2.8219176e+11 </wgt>
<wgt id='1095'> +2.8368316e+11 </wgt>
<wgt id='1096'> +2.8340513e+11 </wgt>
<wgt id='1097'> +2.8281838e+11 </wgt>
<wgt id='1098'> +2.8318808e+11 </wgt>
<wgt id='1099'> +2.8323605e+11 </wgt>
<wgt id='1100'> +2.8402075e+11 </wgt>
<wgt id='1101'> +2.8347835e+11 </wgt>
<wgt id='1102'> +2.8332805e+11 </wgt>
<wgt id='1103'> +2.8266784e+11 </wgt>
<wgt id='1104'> +2.8332864e+11 </wgt>
<wgt id='1105'> +2.8350986e+11 </wgt>
<wgt id='1106'> +2.8380576e+11 </wgt>
<wgt id='1107'> +2.8368216e+11 </wgt>
<wgt id='1108'> +2.8321028e+11 </wgt>
<wgt id='1109'> +2.8328892e+11 </wgt>
<wgt id='1110'> +2.8363430e+11 </wgt>
<wgt id='1111'> +2.8372388e+11 </wgt>
<wgt id='1112'> +2.8332841e+11 </wgt>
<wgt id='1113'> +2.8378319e+11 </wgt>
<wgt id='1114'> +2.8313703e+11 </wgt>
<wgt id='1115'> +2.8293485e+11 </wgt>
<wgt id='1116'> +2.8413965e+11 </wgt>
<wgt id='1117'> +2.8335503e+11 </wgt>
<wgt id='1118'> +2.8378439e+11 </wgt>
<wgt id='1119'> +2.8301256e+11 </wgt>
<wgt id='1120'> +2.8302379e+11 </wgt>
<wgt id='1121'> +2.8349645e+11 </wgt>
<wgt id='1122'> +2.8304386e+11 </wgt>
<wgt id='1123'> +2.8337086e+11 </wgt>
<wgt id='1124'> +2.8349496e+11 </wgt>
<wgt id='1125'> +2.8363108e+11 </wgt>
<wgt id='1126'> +2.8356218e+11 </wgt>
<wgt id='1127'> +2.8329019e+11 </wgt>
<wgt id='1128'> +2.8335855e+11 </wgt>
<wgt id='1129'> +2.8324709e+11 </wgt>
<wgt id='1130'> +2.8345774e+11 </wgt>
<wgt id='1131'> +2.8398285e+11 </wgt>
<wgt id='1132'> +2.8331139e+11 </wgt>
<wgt id='1133'> +2.8358188e+11 </wgt>
<wgt id='1134'> +2.8340256e+11 </wgt>
<wgt id='1135'> +2.8346518e+11 </wgt>
<wgt id='1136'> +2.8329990e+11 </wgt>
<wgt id='1137'> +2.8319724e+11 </wgt>
<wgt id='1138'> +2.8358173e+11 </wgt>
<wgt id='1139'> +2.8354695e+11 </wgt>
<wgt id='1140'> +2.8371387e+11 </wgt>
<wgt id='1141'> +2.8315920e+11 </wgt>
<wgt id='1142'> +2.8348801e+11 </wgt>
<wgt id='1143'> +2.8363319e+11 </wgt>
<wgt id='1144'> +2.8332702e+11 </wgt>
<wgt id='1145'> +2.8359862e+11 </wgt>
<wgt id='1146'> +2.8351097e+11 </wgt>
<wgt id='1147'> +2.8349358e+11 </wgt>
<wgt id='1148'> +2.8343000e+11 </wgt>
<wgt id='1149'> +2.8343000e+11 </wgt>
<wgt id='1150'> +2.9618389e+11 </wgt>
<wgt id='1151'> +2.7635341e+11 </wgt>
<wgt id='1152'> +2.7206807e+11 </wgt>
<wgt id='1153'> +2.8557845e+11 </wgt>
<wgt id='1154'> +2.7922923e+11 </wgt>
<wgt id='1155'> +2.9644079e+11 </wgt>
<wgt id='1156'> +2.8013805e+11 </wgt>
<wgt id='1157'> +2.7594219e+11 </wgt>
<wgt id='1158'> +2.7708822e+11 </wgt>
<wgt id='1159'> +2.9667845e+11 </wgt>
<wgt id='1160'> +2.8538783e+11 </wgt>
<wgt id='1161'> +2.9243686e+11 </wgt>
<wgt id='1162'> +2.8688254e+11 </wgt>
<wgt id='1163'> +2.8727722e+11 </wgt>
<wgt id='1164'> +2.7452059e+11 </wgt>
<wgt id='1165'> +2.7721437e+11 </wgt>
<wgt id='1166'> +2.8337831e+11 </wgt>
<wgt id='1167'> +2.7844641e+11 </wgt>
<wgt id='1168'> +2.7327791e+11 </wgt>
<wgt id='1169'> +2.7636139e+11 </wgt>
<wgt id='1170'> +2.8478294e+11 </wgt>
<wgt id='1171'> +2.7366517e+11 </wgt>
<wgt id='1172'> +2.7318374e+11 </wgt>
<wgt id='1173'> +2.8613750e+11 </wgt>
<wgt id='1174'> +2.7689868e+11 </wgt>
<wgt id='1175'> +2.7907649e+11 </wgt>
<wgt id='1176'> +2.8770164e+11 </wgt>
<wgt id='1177'> +2.7949611e+11 </wgt>
<wgt id='1178'> +2.8565831e+11 </wgt>
<wgt id='1179'> +2.8736043e+11 </wgt>
<wgt id='1180'> +2.7733003e+11 </wgt>
<wgt id='1181'> +2.9451442e+11 </wgt>
<wgt id='1182'> +2.8113509e+11 </wgt>
<wgt id='1183'> +2.8863955e+11 </wgt>
<wgt id='1184'> +2.7526445e+11 </wgt>
<wgt id='1185'> +2.9008124e+11 </wgt>
<wgt id='1186'> +2.7888534e+11 </wgt>
<wgt id='1187'> +2.8557824e+11 </wgt>
<wgt id='1188'> +2.9150273e+11 </wgt>
<wgt id='1189'> +2.8204904e+11 </wgt>
<wgt id='1190'> +2.8015849e+11 </wgt>
<wgt id='1191'> +2.9063031e+11 </wgt>
<wgt id='1192'> +2.8757220e+11 </wgt>
<wgt id='1193'> +2.8878866e+11 </wgt>
<wgt id='1194'> +2.7796572e+11 </wgt>
<wgt id='1195'> +2.8750729e+11 </wgt>
<wgt id='1196'> +2.9075833e+11 </wgt>
<wgt id='1197'> +2.9053682e+11 </wgt>
<wgt id='1198'> +2.8711665e+11 </wgt>
<wgt id='1199'> +2.8671460e+11 </wgt>
<wgt id='1200'> +2.9143743e+11 </wgt>
<wgt id='1201'> +2.8267445e+11 </wgt>
<wgt id='1202'> +2.8472200e+11 </wgt>
<wgt id='1203'> +2.8519528e+11 </wgt>
<wgt id='1204'> +2.7992321e+11 </wgt>
<wgt id='1205'> +2.8535362e+11 </wgt>
<wgt id='1206'> +2.8111918e+11 </wgt>
<wgt id='1207'> +2.9165572e+11 </wgt>
<wgt id='1208'> +2.7131944e+11 </wgt>
<wgt id='1209'> +2.8547623e+11 </wgt>
<wgt id='1210'> +2.8730893e+11 </wgt>
<wgt id='1211'> +2.8045100e+11 </wgt>
<wgt id='1212'> +2.8283923e+11 </wgt>
<wgt id='1213'> +2.8593826e+11 </wgt>
<wgt id='1214'> +2.7949909e+11 </wgt>
<wgt id='1215'> +2.7891755e+11 </wgt>
<wgt id='1216'> +2.7513105e+11 </wgt>
<wgt id='1217'> +2.8136303e+11 </wgt>
<wgt id='1218'> +2.8504994e+11 </wgt>
<wgt id='1219'> +2.9331722e+11 </wgt>
<wgt id='1220'> +2.8107700e+11 </wgt>
<wgt id='1221'> +2.7684124e+11 </wgt>
<wgt id='1222'> +2.7890041e+11 </wgt>
<wgt id='1223'> +2.7410985e+11 </wgt>
<wgt id='1224'> +2.8215545e+11 </wgt>
<wgt id='1225'> +2.8193937e+11 </wgt>
<wgt id='1226'> +2.8521347e+11 </wgt>
<wgt id='1227'> +2.8120582e+11 </wgt>
<wgt id='1228'> +2.8245720e+11 </wgt>
<wgt id='1229'> +2.9953561e+11 </wgt>
<wgt id='1230'> +2.8768320e+11 </wgt>
<wgt id='1231'> +2.7721437e+11 </wgt>
<wgt id='1232'> +2.8815228e+11 </wgt>
<wgt id='1233'> +2.7676235e+11 </wgt>
<wgt id='1234'> +2.7870630e+11 </wgt>
<wgt id='1235'> +3.0065342e+11 </wgt>
<wgt id='1236'> +2.7981227e+11 </wgt>
<wgt id='1237'> +2.9102091e+11 </wgt>
<wgt id='1238'> +2.7959186e+11 </wgt>
<wgt id='1239'> +2.8647571e+11 </wgt>
<wgt id='1240'> +2.7483764e+11 </wgt>
<wgt id='1241'> +2.8944669e+11 </wgt>
<wgt id='1242'> +2.8097063e+11 </wgt>
<wgt id='1243'> +2.8367791e+11 </wgt>
<wgt id='1244'> +2.9149528e+11 </wgt>
<wgt id='1245'> +2.7450849e+11 </wgt>
<wgt id='1246'> +3.0367574e+11 </wgt>
<wgt id='1247'> +2.8141757e+11 </wgt>
<wgt id='1248'> +2.7356062e+11 </wgt>
<wgt id='1249'> +2.7549823e+11 </wgt>
<wgt id='1250'> +2.9456329e+11 </wgt>
<wgt id='1251'> +3.0365827e+11 </wgt>
<wgt id='1252'> +2.8879124e+11 </wgt>
<wgt id='1253'> +2.9586959e+11 </wgt>
<wgt id='1254'> +2.9073659e+11 </wgt>
<wgt id='1255'> +3.0642773e+11 </wgt>
<wgt id='1256'> +3.0577013e+11 </wgt>
<wgt id='1257'> +3.0268059e+11 </wgt>
<wgt id='1258'> +2.9206362e+11 </wgt>
<wgt id='1259'> +3.0907683e+11 </wgt>
<wgt id='1260'> +3.3102528e+11 </wgt>
<wgt id='1261'> +3.1710945e+11 </wgt>
<wgt id='1262'> +2.9661717e+11 </wgt>
<wgt id='1263'> +3.0123792e+11 </wgt>
<wgt id='1264'> +3.0379619e+11 </wgt>
<wgt id='1265'> +2.9241068e+11 </wgt>
<wgt id='1266'> +3.0630797e+11 </wgt>
<wgt id='1267'> +3.5612374e+11 </wgt>
<wgt id='1268'> +2.8832693e+11 </wgt>
<wgt id='1269'> +2.8681925e+11 </wgt>
<wgt id='1270'> +3.0914047e+11 </wgt>
<wgt id='1271'> +2.6450490e+11 </wgt>
<wgt id='1272'> +2.9472980e+11 </wgt>
<wgt id='1273'> +2.9144129e+11 </wgt>
<wgt id='1274'> +2.8787691e+11 </wgt>
<wgt id='1275'> +2.9290172e+11 </wgt>
<wgt id='1276'> +3.0661547e+11 </wgt>
<wgt id='1277'> +3.0209466e+11 </wgt>
<wgt id='1278'> +3.0187363e+11 </wgt>
<wgt id='1279'> +2.7929865e+11 </wgt>
<wgt id='1280'> +2.8634526e+11 </wgt>
<wgt id='1281'> +2.8572591e+11 </wgt>
<wgt id='1282'> +2.9494735e+11 </wgt>
<wgt id='1283'> +3.1565494e+11 </wgt>
<wgt id='1284'> +3.0668646e+11 </wgt>
<wgt id='1285'> +3.0823480e+11 </wgt>
<wgt id='1286'> +3.3328316e+11 </wgt>
<wgt id='1287'> +3.1624810e+11 </wgt>
<wgt id='1288'> +3.4184769e+11 </wgt>
<wgt id='1289'> +3.1768827e+11 </wgt>
<wgt id='1290'> +3.1399485e+11 </wgt>
<wgt id='1291'> +2.7956808e+11 </wgt>
<wgt id='1292'> +3.0570478e+11 </wgt>
<wgt id='1293'> +3.0449080e+11 </wgt>
<wgt id='1294'> +3.2967143e+11 </wgt>
<wgt id='1295'> +3.1259400e+11 </wgt>
<wgt id='1296'> +3.3616460e+11 </wgt>
<wgt id='1297'> +2.8911583e+11 </wgt>
<wgt id='1298'> +2.9057964e+11 </wgt>
<wgt id='1299'> +3.0631115e+11 </wgt>
<wgt id='1300'> +2.7897545e+11 </wgt>
<wgt id='1301'> +2.8030922e+11 </wgt>
<wgt id='1302'> +2.8203209e+11 </wgt>
<wgt id='1303'> +3.0640824e+11 </wgt>
<wgt id='1304'> +3.3324343e+11 </wgt>
<wgt id='1305'> +2.9846490e+11 </wgt>
<wgt id='1306'> +3.0690880e+11 </wgt>
<wgt id='1307'> +2.8396172e+11 </wgt>
<wgt id='1308'> +3.3370412e+11 </wgt>
<wgt id='1309'> +3.0355269e+11 </wgt>
<wgt id='1310'> +3.0496640e+11 </wgt>
<wgt id='1311'> +2.9616685e+11 </wgt>
<wgt id='1312'> +3.2122790e+11 </wgt>
<wgt id='1313'> +3.0739556e+11 </wgt>
<wgt id='1314'> +2.9104326e+11 </wgt>
<wgt id='1315'> +2.8859174e+11 </wgt>
<wgt id='1316'> +3.0050173e+11 </wgt>
<wgt id='1317'> +3.1813900e+11 </wgt>
<wgt id='1318'> +2.9229447e+11 </wgt>
<wgt id='1319'> +2.9767508e+11 </wgt>
<wgt id='1320'> +3.2060269e+11 </wgt>
<wgt id='1321'> +3.0622677e+11 </wgt>
<wgt id='1322'> +3.1762313e+11 </wgt>
<wgt id='1323'> +2.8585641e+11 </wgt>
<wgt id='1324'> +3.1241858e+11 </wgt>
<wgt id='1325'> +3.1445215e+11 </wgt>
<wgt id='1326'> +3.1150716e+11 </wgt>
<wgt id='1327'> +3.1851362e+11 </wgt>
<wgt id='1328'> +2.9993896e+11 </wgt>
<wgt id='1329'> +2.9800159e+11 </wgt>
<wgt id='1330'> +2.8369564e+11 </wgt>
<wgt id='1331'> +3.2535936e+11 </wgt>
<wgt id='1332'> +3.0223536e+11 </wgt>
<wgt id='1333'> +3.0296772e+11 </wgt>
<wgt id='1334'> +3.2168695e+11 </wgt>
<wgt id='1335'> +2.9153314e+11 </wgt>
<wgt id='1336'> +3.2203947e+11 </wgt>
<wgt id='1337'> +3.1041326e+11 </wgt>
<wgt id='1338'> +2.8658858e+11 </wgt>
<wgt id='1339'> +3.1271212e+11 </wgt>
<wgt id='1340'> +3.1477068e+11 </wgt>
<wgt id='1341'> +3.3308409e+11 </wgt>
<wgt id='1342'> +2.9925659e+11 </wgt>
<wgt id='1343'> +3.0958412e+11 </wgt>
<wgt id='1344'> +3.2135501e+11 </wgt>
<wgt id='1345'> +2.5805191e+11 </wgt>
<wgt id='1346'> +3.0631318e+11 </wgt>
<wgt id='1347'> +2.9609704e+11 </wgt>
<wgt id='1348'> +2.9188812e+11 </wgt>
<wgt id='1349'> +2.8923516e+11 </wgt>
<wgt id='1350'> +3.1490256e+11 </wgt>
<wgt id='1351'> +2.9027266e+11 </wgt>
<wgt id='1352'> +3.0583757e+11 </wgt>
<wgt id='1353'> +3.0340609e+11 </wgt>
<wgt id='1354'> +3.1227746e+11 </wgt>
<wgt id='1355'> +2.8038468e+11 </wgt>
<wgt id='1356'> +2.8290688e+11 </wgt>
<wgt id='1357'> +2.8116404e+11 </wgt>
<wgt id='1358'> +2.7901859e+11 </wgt>
<wgt id='1359'> +2.7901220e+11 </wgt>
<wgt id='1360'> +2.7584600e+11 </wgt>
<wgt id='1361'> +2.7881356e+11 </wgt>
<wgt id='1362'> +2.8889785e+11 </wgt>
<wgt id='1363'> +2.7953883e+11 </wgt>
<wgt id='1364'> +2.8642616e+11 </wgt>
<wgt id='1365'> +2.7830544e+11 </wgt>
<wgt id='1366'> +2.7641062e+11 </wgt>
<wgt id='1367'> +2.7921330e+11 </wgt>
<wgt id='1368'> +2.8136393e+11 </wgt>
<wgt id='1369'> +2.8381213e+11 </wgt>
<wgt id='1370'> +2.7608148e+11 </wgt>
<wgt id='1371'> +2.8044576e+11 </wgt>
<wgt id='1372'> +2.8022732e+11 </wgt>
<wgt id='1373'> +2.8396881e+11 </wgt>
<wgt id='1374'> +2.7444303e+11 </wgt>
<wgt id='1375'> +2.8209707e+11 </wgt>
<wgt id='1376'> +2.7937842e+11 </wgt>
<wgt id='1377'> +2.8061991e+11 </wgt>
<wgt id='1378'> +2.8181570e+11 </wgt>
<wgt id='1379'> +2.7870269e+11 </wgt>
<wgt id='1380'> +2.7779875e+11 </wgt>
<wgt id='1381'> +2.8449236e+11 </wgt>
<wgt id='1382'> +2.7868392e+11 </wgt>
<wgt id='1383'> +2.7726538e+11 </wgt>
<wgt id='1384'> +2.7525992e+11 </wgt>
<wgt id='1385'> +2.7491502e+11 </wgt>
<wgt id='1386'> +2.7754071e+11 </wgt>
<wgt id='1387'> +2.7855857e+11 </wgt>
<wgt id='1388'> +2.7583960e+11 </wgt>
<wgt id='1389'> +2.7867076e+11 </wgt>
<wgt id='1390'> +2.8336212e+11 </wgt>
<wgt id='1391'> +2.8009830e+11 </wgt>
<wgt id='1392'> +2.7577384e+11 </wgt>
<wgt id='1393'> +2.8223016e+11 </wgt>
<wgt id='1394'> +2.7998597e+11 </wgt>
<wgt id='1395'> +2.7503125e+11 </wgt>
<wgt id='1396'> +2.8066233e+11 </wgt>
<wgt id='1397'> +2.8079378e+11 </wgt>
<wgt id='1398'> +2.8491566e+11 </wgt>
<wgt id='1399'> +2.7863861e+11 </wgt>
<wgt id='1400'> +2.7479420e+11 </wgt>
<wgt id='1401'> +2.8129751e+11 </wgt>
<wgt id='1402'> +2.8266835e+11 </wgt>
<wgt id='1403'> +2.9005155e+11 </wgt>
<wgt id='1404'> +2.8437158e+11 </wgt>
<wgt id='1405'> +2.8811253e+11 </wgt>
<wgt id='1406'> +2.8423384e+11 </wgt>
<wgt id='1407'> +2.8150612e+11 </wgt>
<wgt id='1408'> +2.8832374e+11 </wgt>
<wgt id='1409'> +2.7495598e+11 </wgt>
<wgt id='1410'> +2.7240126e+11 </wgt>
<wgt id='1411'> +2.8010360e+11 </wgt>
<wgt id='1412'> +2.7991469e+11 </wgt>
<wgt id='1413'> +2.8366826e+11 </wgt>
<wgt id='1414'> +2.8293456e+11 </wgt>
<wgt id='1415'> +2.7930406e+11 </wgt>
<wgt id='1416'> +2.8132659e+11 </wgt>
<wgt id='1417'> +2.7830076e+11 </wgt>
<wgt id='1418'> +2.7911004e+11 </wgt>
<wgt id='1419'> +2.8363589e+11 </wgt>
<wgt id='1420'> +2.7478998e+11 </wgt>
<wgt id='1421'> +2.8727729e+11 </wgt>
<wgt id='1422'> +2.7311519e+11 </wgt>
<wgt id='1423'> +2.8409344e+11 </wgt>
<wgt id='1424'> +2.8056976e+11 </wgt>
<wgt id='1425'> +2.8067499e+11 </wgt>
<wgt id='1426'> +2.8272418e+11 </wgt>
<wgt id='1427'> +2.7867175e+11 </wgt>
<wgt id='1428'> +2.7842132e+11 </wgt>
<wgt id='1429'> +2.8146224e+11 </wgt>
<wgt id='1430'> +2.7706877e+11 </wgt>
<wgt id='1431'> +2.7709612e+11 </wgt>
<wgt id='1432'> +2.7642975e+11 </wgt>
<wgt id='1433'> +2.7529889e+11 </wgt>
<wgt id='1434'> +2.8719458e+11 </wgt>
<wgt id='1435'> +2.7978636e+11 </wgt>
<wgt id='1436'> +2.8436284e+11 </wgt>
<wgt id='1437'> +2.7874113e+11 </wgt>
<wgt id='1438'> +2.8019895e+11 </wgt>
<wgt id='1439'> +2.8732559e+11 </wgt>
<wgt id='1440'> +2.8098930e+11 </wgt>
<wgt id='1441'> +2.7625048e+11 </wgt>
<wgt id='1442'> +2.8284692e+11 </wgt>
<wgt id='1443'> +2.7657855e+11 </wgt>
<wgt id='1444'> +2.8667104e+11 </wgt>
<wgt id='1445'> +2.7931872e+11 </wgt>
<wgt id='1446'> +2.8906672e+11 </wgt>
<wgt id='1447'> +2.8022744e+11 </wgt>
<wgt id='1448'> +2.8305262e+11 </wgt>
<wgt id='1449'> +2.8349088e+11 </wgt>
<wgt id='1450'> +2.7968282e+11 </wgt>
<wgt id='1451'> +2.8044656e+11 </wgt>
<wgt id='1452'> +2.8253177e+11 </wgt>
<wgt id='1453'> +2.8179855e+11 </wgt>
<wgt id='1454'> +2.7146570e+11 </wgt>
<wgt id='1455'> +2.7877544e+11 </wgt>
<wgt id='1456'> +2.7875954e+11 </wgt>
<wgt id='1457'> +2.8011074e+11 </wgt>
<wgt id='1458'> +2.8712126e+11 </wgt>
<wgt id='1459'> +3.1280598e+11 </wgt>
<wgt id='1460'> +3.0754242e+11 </wgt>
<wgt id='1461'> +3.6789746e+11 </wgt>
<wgt id='1462'> +3.0153525e+11 </wgt>
<wgt id='1463'> +3.0175507e+11 </wgt>
<wgt id='1464'> +3.0125334e+11 </wgt>
<wgt id='1465'> +3.0160315e+11 </wgt>
<wgt id='1466'> +3.0147324e+11 </wgt>
<wgt id='1467'> +3.0164742e+11 </wgt>
<wgt id='1468'> +3.0135121e+11 </wgt>
<wgt id='1469'> +3.0110384e+11 </wgt>
<wgt id='1470'> +3.0188562e+11 </wgt>
<wgt id='1471'> +3.0198305e+11 </wgt>
<wgt id='1472'> +3.0107402e+11 </wgt>
<wgt id='1473'> +3.0273732e+11 </wgt>
<wgt id='1474'> +3.0038065e+11 </wgt>
<wgt id='1475'> +3.0267316e+11 </wgt>
<wgt id='1476'> +3.0072865e+11 </wgt>
<wgt id='1477'> +3.0098922e+11 </wgt>
<wgt id='1478'> +3.0281107e+11 </wgt>
<wgt id='1479'> +3.0121595e+11 </wgt>
<wgt id='1480'> +3.0176320e+11 </wgt>
<wgt id='1481'> +3.0097004e+11 </wgt>
<wgt id='1482'> +3.0230004e+11 </wgt>
<wgt id='1483'> +3.0159236e+11 </wgt>
<wgt id='1484'> +3.0145813e+11 </wgt>
<wgt id='1485'> +3.0174545e+11 </wgt>
<wgt id='1486'> +3.0102898e+11 </wgt>
<wgt id='1487'> +3.0182120e+11 </wgt>
<wgt id='1488'> +3.0117834e+11 </wgt>
<wgt id='1489'> +3.0115805e+11 </wgt>
<wgt id='1490'> +3.0255831e+11 </wgt>
<wgt id='1491'> +3.0658800e+11 </wgt>
<wgt id='1492'> +2.9872041e+11 </wgt>
<wgt id='1493'> +2.9785126e+11 </wgt>
<wgt id='1494'> +3.1309078e+11 </wgt>
<wgt id='1495'> +3.0069651e+11 </wgt>
<wgt id='1496'> +3.0243611e+11 </wgt>
<wgt id='1497'> +3.0174649e+11 </wgt>
<wgt id='1498'> +3.0124685e+11 </wgt>
<wgt id='1499'> +3.0364146e+11 </wgt>
<wgt id='1500'> +3.0038542e+11 </wgt>
<wgt id='1501'> +3.0187783e+11 </wgt>
<wgt id='1502'> +3.0063471e+11 </wgt>
<wgt id='1503'> +2.9724985e+11 </wgt>
<wgt id='1504'> +3.0632513e+11 </wgt>
<wgt id='1505'> +3.0221633e+11 </wgt>
<wgt id='1506'> +3.0086271e+11 </wgt>
<wgt id='1507'> +3.0485816e+11 </wgt>
<wgt id='1508'> +2.9629236e+11 </wgt>
<wgt id='1509'> +3.0232297e+11 </wgt>
<wgt id='1510'> +2.9813858e+11 </wgt>
<wgt id='1511'> +3.0276767e+11 </wgt>
<wgt id='1512'> +3.0117008e+11 </wgt>
<wgt id='1513'> +3.0136102e+11 </wgt>
<wgt id='1514'> +3.0174282e+11 </wgt>
<wgt id='1515'> +3.0530161e+11 </wgt>
<wgt id='1516'> +3.0110723e+11 </wgt>
<wgt id='1517'> +3.0100552e+11 </wgt>
<wgt id='1518'> +3.0225943e+11 </wgt>
<wgt id='1519'> +2.9954057e+11 </wgt>
<wgt id='1520'> +3.0294814e+11 </wgt>
<wgt id='1521'> +3.0030158e+11 </wgt>
<wgt id='1522'> +3.0223108e+11 </wgt>
<wgt id='1523'> +3.0272453e+11 </wgt>
<wgt id='1524'> +3.0320141e+11 </wgt>
<wgt id='1525'> +3.0226212e+11 </wgt>
<wgt id='1526'> +3.0301664e+11 </wgt>
<wgt id='1527'> +3.0153525e+11 </wgt>
<wgt id='1528'> +3.0040993e+11 </wgt>
<wgt id='1529'> +3.0237477e+11 </wgt>
<wgt id='1530'> +2.9732187e+11 </wgt>
<wgt id='1531'> +3.0468819e+11 </wgt>
<wgt id='1532'> +3.0411379e+11 </wgt>
<wgt id='1533'> +2.9914662e+11 </wgt>
<wgt id='1534'> +3.0303250e+11 </wgt>
<wgt id='1535'> +3.0794273e+11 </wgt>
<wgt id='1536'> +3.0141022e+11 </wgt>
<wgt id='1537'> +3.0634644e+11 </wgt>
<wgt id='1538'> +3.0068335e+11 </wgt>
<wgt id='1539'> +3.0983230e+11 </wgt>
<wgt id='1540'> +3.0582779e+11 </wgt>
<wgt id='1541'> +3.0633577e+11 </wgt>
<wgt id='1542'> +3.0483647e+11 </wgt>
<wgt id='1543'> +3.0651196e+11 </wgt>
<wgt id='1544'> +3.0301845e+11 </wgt>
<wgt id='1545'> +3.0266200e+11 </wgt>
<wgt id='1546'> +3.0089910e+11 </wgt>
<wgt id='1547'> +3.0697885e+11 </wgt>
<wgt id='1548'> +3.0346327e+11 </wgt>
<wgt id='1549'> +3.0114459e+11 </wgt>
<wgt id='1550'> +3.0682123e+11 </wgt>
<wgt id='1551'> +3.0530212e+11 </wgt>
<wgt id='1552'> +3.0478463e+11 </wgt>
<wgt id='1553'> +3.0949061e+11 </wgt>
<wgt id='1554'> +3.0491630e+11 </wgt>
<wgt id='1555'> +3.0568046e+11 </wgt>
<wgt id='1556'> +3.0673710e+11 </wgt>
<wgt id='1557'> +3.0431142e+11 </wgt>
<wgt id='1558'> +3.0504854e+11 </wgt>
<wgt id='1559'> +3.0205090e+11 </wgt>
<wgt id='1560'> +3.0359127e+11 </wgt>
<wgt id='1561'> +3.0263830e+11 </wgt>
<wgt id='1562'> +3.0290296e+11 </wgt>
<wgt id='1563'> +3.0495960e+11 </wgt>
<wgt id='1564'> +3.0440234e+11 </wgt>
<wgt id='1565'> +3.0762668e+11 </wgt>
<wgt id='1566'> +3.0469010e+11 </wgt>
<wgt id='1567'> +3.0600390e+11 </wgt>
<wgt id='1568'> +3.0453841e+11 </wgt>
<wgt id='1569'> +3.0405975e+11 </wgt>
<wgt id='1570'> +3.1135215e+11 </wgt>
<wgt id='1571'> +3.0476732e+11 </wgt>
<wgt id='1572'> +3.0642253e+11 </wgt>
<wgt id='1573'> +3.0899473e+11 </wgt>
<wgt id='1574'> +2.5406116e+11 </wgt>
<wgt id='1575'> +2.5412769e+11 </wgt>
<wgt id='1576'> +2.5399262e+11 </wgt>
<wgt id='1577'> +2.5407909e+11 </wgt>
<wgt id='1578'> +2.5464700e+11 </wgt>
<wgt id='1579'> +2.5485326e+11 </wgt>
<wgt id='1580'> +2.5461896e+11 </wgt>
<wgt id='1581'> +2.5359211e+11 </wgt>
<wgt id='1582'> +2.5332568e+11 </wgt>
<wgt id='1583'> +2.5359861e+11 </wgt>
<wgt id='1584'> +2.5462459e+11 </wgt>
<wgt id='1585'> +2.5431376e+11 </wgt>
<wgt id='1586'> +2.5326883e+11 </wgt>
<wgt id='1587'> +2.5341411e+11 </wgt>
<wgt id='1588'> +2.5297485e+11 </wgt>
<wgt id='1589'> +2.5373691e+11 </wgt>
<wgt id='1590'> +2.5391120e+11 </wgt>
<wgt id='1591'> +2.5414234e+11 </wgt>
<wgt id='1592'> +2.5308665e+11 </wgt>
<wgt id='1593'> +2.5296055e+11 </wgt>
<wgt id='1594'> +2.5513176e+11 </wgt>
<wgt id='1595'> +2.5151431e+11 </wgt>
<wgt id='1596'> +2.5834165e+11 </wgt>
<wgt id='1597'> +2.5588243e+11 </wgt>
<wgt id='1598'> +2.5600099e+11 </wgt>
<wgt id='1599'> +2.5103099e+11 </wgt>
<wgt id='1600'> +2.5899870e+11 </wgt>
<wgt id='1601'> +2.5622188e+11 </wgt>
<wgt id='1602'> +2.5411834e+11 </wgt>
<wgt id='1603'> +2.6818747e+11 </wgt>
<wgt id='1604'> +2.5424613e+11 </wgt>
</rwgt>
</event>
<event>
 9      1 +2.8343000e+11 1.40000100e+03 7.81738600e-03 7.88881100e-02
       21 -1    0    0  504  503 +0.0000000000e+00 +0.0000000000e+00 +5.5206084548e+02 5.5206084548e+02 0.0000000000e+00 0.0000e+00 -1.0000e+00
       21 -1    0    0  503  504 -0.0000000000e+00 -0.0000000000e+00 -8.8758417608e+02 8.8758417608e+02 0.0000000000e+00 0.0000e+00 -1.0000e+00
       45  2    1    2    0    0 +0.0000000000e+00 -5.6843418861e-14 -3.3552333060e+02 1.4396450216e+03 1.4000006724e+03 0.0000e+00 0.0000e+00
       25  2    3    3    0    0 -3.3547851746e+02 +5.0818875190e+02 +1.6850570690e+02 6.4406543782e+02 1.2499788682e+02 0.0000e+00 0.0000e+00
       35  2    3    3    0    0 +3.3547851746e+02 -5.0818875190e+02 -5.0402903750e+02 7.9557958373e+02 8.9999778701e+01 0.0000e+00 0.0000e+00
        5  1    5    5  501    0 +8.8900516381e+01 -1.0371407352e+02 -7.2183228006e+01 1.5455771433e+02 4.2140000000e+00 0.0000e+00 -1.0000e+00
       -5  1    5    5    0  501 +2.4657800108e+02 -4.0447467838e+02 -4.3184580950e+02 6.4102186939e+02 4.2140000000e+00 0.0000e+00 -1.0000e+00
        5  1    4    4  502    0 -2.9309812213e+02 +3.7585310556e+02 +1.6694971540e+02 5.0503666344e+02 4.2140000000e+00 0.0000e+00 -1.0000e+00
       -5  1    4    4    0  502 -4.2380395325e+01 +1.3233564634e+02 +1.5559915082e+00 1.3902877438e+02 4.2140000000e+00 0.0000e+00 -1.0000e+00
<mgrwt>
<rscale>  0 0.14000007E+04</rscale>
<asrwt>0</asrwt>
<pdfrwt beam="1">  1       21 0.84932439E-01 0.14000007E+04</pdfrwt>
<pdfrwt beam="2">  1       21 0.13655141E+00 0.14000007E+04</pdfrwt>
<totfact> 0.34272696E+02</totfact>
</mgrwt>
<rwgt>
<wgt id='1001'> +2.8343000e+11 </wgt>
<wgt id='1002'> +2.8952033e+11 </wgt>
<wgt id='1003'> +2.8951939e+11 </wgt>
<wgt id='1004'> +3.2516784e+11 </wgt>
<wgt id='1005'> +2.8343000e+11 </wgt>
<wgt id='1006'> +2.8343000e+11 </wgt>
<wgt id='1007'> +2.8952033e+11 </wgt>
<wgt id='1008'> +2.8951939e+11 </wgt>
<wgt id='1009'> +3.2516784e+11 </wgt>
<wgt id='1010'> +2.8343000e+11 </wgt>
<wgt id='1011'> +2.8343000e+11 </wgt>
<wgt id='1012'> +2.8952033e+11 </wgt>
<wgt id='1013'> +2.8951939e+11 </wgt>
<wgt id='1014'> +3.2516784e+11 </wgt>
<wgt id='1015'> +2.8343000e+11 </wgt>
<wgt id='1016'> +2.5455999e+11 </wgt>
<wgt id='1017'> +2.5971481e+11 </wgt>
<wgt id='1018'> +2.5971401e+11 </wgt>
<wgt id='1019'> +2.8951939e+11 </wgt>
<wgt id='1020'> +2.5455999e+11 </wgt>
<wgt id='1021'> +2.5455999e+11 </wgt>
<wgt id='1022'> +2.5971481e+11 </wgt>
<wgt id='1023'> +2.5971401e+11 </wgt>
<wgt id='1024'> +2.8951939e+11 </wgt>
<wgt id='1025'> +2.5455999e+11 </wgt>
<wgt id='1026'> +2.5455999e+11 </wgt>
<wgt id='1027'> +2.5971481e+11 </wgt>
<wgt id='1028'> +2.5971401e+11 </wgt>
<wgt id='1029'> +2.8951939e+11 </wgt>
<wgt id='1030'> +2.5455999e+11 </wgt>
<wgt id='1031'> +3.1785129e+11 </wgt>
<wgt id='1032'> +3.2516897e+11 </wgt>
<wgt id='1033'> +3.2516784e+11 </wgt>
<wgt id='1034'> +3.6811740e+11 </wgt>
<wgt id='1035'> +3.1785130e+11 </wgt>
<wgt id='1036'> +3.1785129e+11 </wgt>
<wgt id='1037'> +3.2516897e+11 </wgt>
<wgt id='1038'> +3.2516784e+11 </wgt>
<wgt id='1039'> +3.6811740e+11 </wgt>
<wgt id='1040'> +3.1785130e+11 </wgt>
<wgt id='1041'> +3.1785129e+11 </wgt>
<wgt id='1042'> +3.2516897e+11 </wgt>
<wgt id='1043'> +3.2516784e+11 </wgt>
<wgt id='1044'> +3.6811740e+11 </wgt>
<wgt id='1045'> +3.1785130e+11 </wgt>
<wgt id='1046'> +2.8343000e+11 </wgt>
<wgt id='1047'> +2.8343000e+11 </wgt>
<wgt id='1048'> +2.8343000e+11 </wgt>
<wgt id='1049'> +2.8244416e+11 </wgt>
<wgt id='1050'> +2.8313578e+11 </wgt>
<wgt id='1051'> +2.8354457e+11 </wgt>
<wgt id='1052'> +2.8428728e+11 </wgt>
<wgt id='1053'> +2.8184089e+11 </wgt>
<wgt id='1054'> +2.8382339e+11 </wgt>
<wgt id='1055'> +2.8226006e+11 </wgt>
<wgt id='1056'> +2.8194384e+11 </wgt>
<wgt id='1057'> +2.8403940e+11 </wgt>
<wgt id='1058'> +2.8299331e+11 </wgt>
<wgt id='1059'> +2.8532874e+11 </wgt>
<wgt id='1060'> +2.8369049e+11 </wgt>
<wgt id='1061'> +2.8410479e+11 </wgt>
<wgt id='1062'> +2.8409482e+11 </wgt>
<wgt id='1063'> +2.8391100e+11 </wgt>
<wgt id='1064'> +2.8446886e+11 </wgt>
<wgt id='1065'> +2.8478145e+11 </wgt>
<wgt id='1066'> +2.8168729e+11 </wgt>
<wgt id='1067'> +2.8030060e+11 </wgt>
<wgt id='1068'> +2.8358249e+11 </wgt>
<wgt id='1069'> +2.8266181e+11 </wgt>
<wgt id='1070'> +2.8361200e+11 </wgt>
<wgt id='1071'> +2.8434943e+11 </wgt>
<wgt id='1072'> +2.8134837e+11 </wgt>
<wgt id='1073'> +2.8396159e+11 </wgt>
<wgt id='1074'> +2.8326401e+11 </wgt>
<wgt id='1075'> +2.8447420e+11 </wgt>
<wgt id='1076'> +2.8257250e+11 </wgt>
<wgt id='1077'> +2.8261344e+11 </wgt>
<wgt id='1078'> +2.8410045e+11 </wgt>
<wgt id='1079'> +2.8195710e+11 </wgt>
<wgt id='1080'> +2.8293606e+11 </wgt>
<wgt id='1081'> +2.8297074e+11 </wgt>
<wgt id='1082'> +2.8210220e+11 </wgt>
<wgt id='1083'> +2.8391237e+11 </wgt>
<wgt id='1084'> +2.8402654e+11 </wgt>
<wgt id='1085'> +2.8282115e+11 </wgt>
<wgt id='1086'> +2.8293535e+11 </wgt>
<wgt id='1087'> +2.8309482e+11 </wgt>
<wgt id='1088'> +2.8294193e+11 </wgt>
<wgt id='1089'> +2.8277170e+11 </wgt>
<wgt id='1090'> +2.8414406e+11 </wgt>
<wgt id='1091'> +2.8352217e+11 </wgt>
<wgt id='1092'> +2.8367655e+11 </wgt>
<wgt id='1093'> +2.8331000e+11 </wgt>
<wgt id='1094'> +2.8283912e+11 </wgt>
<wgt id='1095'> +2.8357053e+11 </wgt>
<wgt id='1096'> +2.8335109e+11 </wgt>
<wgt id='1097'> +2.8302246e+11 </wgt>
<wgt id='1098'> +2.8308962e+11 </wgt>
<wgt id='1099'> +2.8317860e+11 </wgt>
<wgt id='1100'> +2.8401161e+11 </wgt>
<wgt id='1101'> +2.8340866e+11 </wgt>
<wgt id='1102'> +2.8328034e+11 </wgt>
<wgt id='1103'> +2.8308964e+11 </wgt>
<wgt id='1104'> +2.8312335e+11 </wgt>
<wgt id='1105'> +2.8355009e+11 </wgt>
<wgt id='1106'> +2.8374423e+11 </wgt>
<wgt id='1107'> +2.8334199e+11 </wgt>
<wgt id='1108'> +2.8333312e+11 </wgt>
<wgt id='1109'> +2.8321892e+11 </wgt>
<wgt id='1110'> +2.8375110e+11 </wgt>
<wgt id='1111'> +2.8356203e+11 </wgt>
<wgt id='1112'> +2.8339204e+11 </wgt>
<wgt id='1113'> +2.8374217e+11 </wgt>
<wgt id='1114'> +2.8311417e+11 </wgt>
<wgt id='1115'> +2.8321336e+11 </wgt>
<wgt id='1116'> +2.8377994e+11 </wgt>
<wgt id='1117'> +2.8336847e+11 </wgt>
<wgt id='1118'> +2.8353072e+11 </wgt>
<wgt id='1119'> +2.8323209e+11 </wgt>
<wgt id='1120'> +2.8326694e+11 </wgt>
<wgt id='1121'> +2.8348353e+11 </wgt>
<wgt id='1122'> +2.8321612e+11 </wgt>
<wgt id='1123'> +2.8337851e+11 </wgt>
<wgt id='1124'> +2.8337239e+11 </wgt>
<wgt id='1125'> +2.8359076e+11 </wgt>
<wgt id='1126'> +2.8353880e+11 </wgt>
<wgt id='1127'> +2.8332481e+11 </wgt>
<wgt id='1128'> +2.8345696e+11 </wgt>
<wgt id='1129'> +2.8337070e+11 </wgt>
<wgt id='1130'> +2.8346279e+11 </wgt>
<wgt id='1131'> +2.8372462e+11 </wgt>
<wgt id='1132'> +2.8334968e+11 </wgt>
<wgt id='1133'> +2.8350803e+11 </wgt>
<wgt id='1134'> +2.8340747e+11 </wgt>
<wgt id='1135'> +2.8347341e+11 </wgt>
<wgt id='1136'> +2.8338500e+11 </wgt>
<wgt id='1137'> +2.8327432e+11 </wgt>
<wgt id='1138'> +2.8354996e+11 </wgt>
<wgt id='1139'> +2.8347807e+11 </wgt>
<wgt id='1140'> +2.8363544e+11 </wgt>
<wgt id='1141'> +2.8328566e+11 </wgt>
<wgt id='1142'> +2.8350455e+11 </wgt>
<wgt id='1143'> +2.8359915e+11 </wgt>
<wgt id='1144'> +2.8334268e+11 </wgt>
<wgt id='1145'> +2.8356057e+11 </wgt>
<wgt id='1146'> +2.8342118e+11 </wgt>
<wgt id='1147'> +2.8348036e+11 </wgt>
<wgt id='1148'> +2.8343000e+11 </wgt>
<wgt id='1149'> +2.8343000e+11 </wgt>
<wgt id='1150'> +2.9365697e+11 </wgt>
<wgt id='1151'> +2.8016345e+11 </wgt>
<wgt id='1152'> +2.8295630e+11 </wgt>
<wgt id='1153'> +2.8717061e+11 </wgt>
<wgt id='1154'> +2.8613478e+11 </wgt>
<wgt id='1155'> +2.8949151e+11 </wgt>
<wgt id='1156'> +2.7686983e+11 </wgt>
<wgt id='1157'> +2.7575011e+11 </wgt>
<wgt id='1158'> +2.7745369e+11 </wgt>
<wgt id='1159'> +2.9751049e+11 </wgt>
<wgt id='1160'> +2.8260697e+11 </wgt>
<wgt id='1161'> +2.8554836e+11 </wgt>
<wgt id='1162'> +2.7914232e+11 </wgt>
<wgt id='1163'> +2.8648906e+11 </wgt>
<wgt id='1164'> +2.6890727e+11 </wgt>
<wgt id='1165'> +2.7851794e+11 </wgt>
<wgt id='1166'> +2.8434303e+11 </wgt>
<wgt id='1167'> +2.7922405e+11 </wgt>
<wgt id='1168'> +2.7596292e+11 </wgt>
<wgt id='1169'> +2.7579155e+11 </wgt>
<wgt id='1170'> +2.7869672e+11 </wgt>
<wgt id='1171'> +2.7317257e+11 </wgt>
<wgt id='1172'> +2.7681767e+11 </wgt>
<wgt id='1173'> +2.8705262e+11 </wgt>
<wgt id='1174'> +2.7877281e+11 </wgt>
<wgt id='1175'> +2.7609519e+11 </wgt>
<wgt id='1176'> +2.8634335e+11 </wgt>
<wgt id='1177'> +2.7873935e+11 </wgt>
<wgt id='1178'> +2.8308000e+11 </wgt>
<wgt id='1179'> +2.8070597e+11 </wgt>
<wgt id='1180'> +2.8711256e+11 </wgt>
<wgt id='1181'> +2.7986813e+11 </wgt>
<wgt id='1182'> +2.8097331e+11 </wgt>
<wgt id='1183'> +2.9408299e+11 </wgt>
<wgt id='1184'> +2.7996036e+11 </wgt>
<wgt id='1185'> +2.8355369e+11 </wgt>
<wgt id='1186'> +2.7338419e+11 </wgt>
<wgt id='1187'> +2.8512090e+11 </wgt>
<wgt id='1188'> +2.8110685e+11 </wgt>
<wgt id='1189'> +2.8447364e+11 </wgt>
<wgt id='1190'> +2.8330241e+11 </wgt>
<wgt id='1191'> +2.9379517e+11 </wgt>
<wgt id='1192'> +2.9094725e+11 </wgt>
<wgt id='1193'> +2.9416687e+11 </wgt>
<wgt id='1194'> +2.8356733e+11 </wgt>
<wgt id='1195'> +2.8366576e+11 </wgt>
<wgt id='1196'> +2.9208834e+11 </wgt>
<wgt id='1197'> +2.9308962e+11 </wgt>
<wgt id='1198'> +2.7798387e+11 </wgt>
<wgt id='1199'> +2.8425291e+11 </wgt>
<wgt id='1200'> +2.8353286e+11 </wgt>
<wgt id='1201'> +2.7952066e+11 </wgt>
<wgt id='1202'> +2.8807732e+11 </wgt>
<wgt id='1203'> +2.7846928e+11 </wgt>
<wgt id='1204'> +2.8674492e+11 </wgt>
<wgt id='1205'> +2.8447202e+11 </wgt>
<wgt id='1206'> +2.7730580e+11 </wgt>
<wgt id='1207'> +2.9241231e+11 </wgt>
<wgt id='1208'> +2.7208865e+11 </wgt>
<wgt id='1209'> +2.7988006e+11 </wgt>
<wgt id='1210'> +2.8170007e+11 </wgt>
<wgt id='1211'> +2.8575834e+11 </wgt>
<wgt id='1212'> +2.8335393e+11 </wgt>
<wgt id='1213'> +2.9223971e+11 </wgt>
<wgt id='1214'> +2.7596550e+11 </wgt>
<wgt id='1215'> +2.9027579e+11 </wgt>
<wgt id='1216'> +2.8523828e+11 </wgt>
<wgt id='1217'> +2.7617757e+11 </wgt>
<wgt id='1218'> +2.8466985e+11 </wgt>
<wgt id='1219'> +2.9407121e+11 </wgt>
<wgt id='1220'> +2.7768158e+11 </wgt>
<wgt id='1221'> +2.7549613e+11 </wgt>
<wgt id='1222'> +2.7979004e+11 </wgt>
<wgt id='1223'> +2.7273018e+11 </wgt>
<wgt id='1224'> +2.8338379e+11 </wgt>
<wgt id='1225'> +2.8831713e+11 </wgt>
<wgt id='1226'> +2.8949286e+11 </wgt>
<wgt id='1227'> +2.7499891e+11 </wgt>
<wgt id='1228'> +2.8154910e+11 </wgt>
<wgt id='1229'> +3.0244848e+11 </wgt>
<wgt id='1230'> +2.9296369e+11 </wgt>
<wgt id='1231'> +2.7851794e+11 </wgt>
<wgt id='1232'> +2.8844384e+11 </wgt>
<wgt id='1233'> +2.7756434e+11 </wgt>
<wgt id='1234'> +2.7652684e+11 </wgt>
<wgt id='1235'> +3.0185853e+11 </wgt>
<wgt id='1236'> +2.7670413e+11 </wgt>
<wgt id='1237'> +2.8936949e+11 </wgt>
<wgt id='1238'> +2.8779832e+11 </wgt>
<wgt id='1239'> +2.9027307e+11 </wgt>
<wgt id='1240'> +2.8371487e+11 </wgt>
<wgt id='1241'> +2.8262899e+11 </wgt>
<wgt id='1242'> +2.8038476e+11 </wgt>
<wgt id='1243'> +2.8804949e+11 </wgt>
<wgt id='1244'> +2.8208595e+11 </wgt>
<wgt id='1245'> +2.8117510e+11 </wgt>
<wgt id='1246'> +3.0643549e+11 </wgt>
<wgt id='1247'> +2.8294909e+11 </wgt>
<wgt id='1248'> +2.7463815e+11 </wgt>
<wgt id='1249'> +2.7702754e+11 </wgt>
<wgt id='1250'> +2.9229567e+11 </wgt>
<wgt id='1251'> +2.9804597e+11 </wgt>
<wgt id='1252'> +2.8630010e+11 </wgt>
<wgt id='1253'> +2.8501731e+11 </wgt>
<wgt id='1254'> +2.8756128e+11 </wgt>
<wgt id='1255'> +2.9770844e+11 </wgt>
<wgt id='1256'> +2.9612267e+11 </wgt>
<wgt id='1257'> +2.8792856e+11 </wgt>
<wgt id='1258'> +2.9765755e+11 </wgt>
<wgt id='1259'> +2.9480420e+11 </wgt>
<wgt id='1260'> +3.2438604e+11 </wgt>
<wgt id='1261'> +3.1263723e+11 </wgt>
<wgt id='1262'> +2.8921428e+11 </wgt>
<wgt id='1263'> +2.9610306e+11 </wgt>
<wgt id='1264'> +2.9820270e+11 </wgt>
<wgt id='1265'> +2.9685068e+11 </wgt>
<wgt id='1266'> +2.9488386e+11 </wgt>
<wgt id='1267'> +3.1960669e+11 </wgt>
<wgt id='1268'> +2.9229747e+11 </wgt>
<wgt id='1269'> +2.8612030e+11 </wgt>
<wgt id='1270'> +2.9263667e+11 </wgt>
<wgt id='1271'> +2.7608714e+11 </wgt>
<wgt id='1272'> +2.9218799e+11 </wgt>
<wgt id='1273'> +2.9049716e+11 </wgt>
<wgt id='1274'> +2.8617976e+11 </wgt>
<wgt id='1275'> +2.9669517e+11 </wgt>
<wgt id='1276'> +2.9549637e+11 </wgt>
<wgt id='1277'> +2.9078899e+11 </wgt>
<wgt id='1278'> +2.8838975e+11 </wgt>
<wgt id='1279'> +2.7988965e+11 </wgt>
<wgt id='1280'> +2.9092888e+11 </wgt>
<wgt id='1281'> +2.8452250e+11 </wgt>
<wgt id='1282'> +2.9531307e+11 </wgt>
<wgt id='1283'> +2.9701889e+11 </wgt>
<wgt id='1284'> +3.1272330e+11 </wgt>
<wgt id='1285'> +3.0707742e+11 </wgt>
<wgt id='1286'> +3.2759982e+11 </wgt>
<wgt id='1287'> +3.0240912e+11 </wgt>
<wgt id='1288'> +3.2375005e+11 </wgt>
<wgt id='1289'> +3.1199627e+11 </wgt>
<wgt id='1290'> +3.1042564e+11 </wgt>
<wgt id='1291'> +2.7688580e+11 </wgt>
<wgt id='1292'> +2.9720671e+11 </wgt>
<wgt id='1293'> +2.9970734e+11 </wgt>
<wgt id='1294'> +3.1431187e+11 </wgt>
<wgt id='1295'> +2.9995866e+11 </wgt>
<wgt id='1296'> +3.1610933e+11 </wgt>
<wgt id='1297'> +2.9379393e+11 </wgt>
<wgt id='1298'> +2.8662668e+11 </wgt>
<wgt id='1299'> +2.9840022e+11 </wgt>
<wgt id='1300'> +2.8713274e+11 </wgt>
<wgt id='1301'> +2.7925369e+11 </wgt>
<wgt id='1302'> +2.7707653e+11 </wgt>
<wgt id='1303'> +2.9796032e+11 </wgt>
<wgt id='1304'> +3.0786572e+11 </wgt>
<wgt id='1305'> +2.9732663e+11 </wgt>
<wgt id='1306'> +3.0423880e+11 </wgt>
<wgt id='1307'> +3.0018740e+11 </wgt>
<wgt id='1308'> +3.2493312e+11 </wgt>
<wgt id='1309'> +2.9539468e+11 </wgt>
<wgt id='1310'> +3.0117488e+11 </wgt>
<wgt id='1311'> +3.0535869e+11 </wgt>
<wgt id='1312'> +2.9962033e+11 </wgt>
<wgt id='1313'> +2.9673427e+11 </wgt>
<wgt id='1314'> +3.0158199e+11 </wgt>
<wgt id='1315'> +2.8436647e+11 </wgt>
<wgt id='1316'> +2.9778464e+11 </wgt>
<wgt id='1317'> +3.0140725e+11 </wgt>
<wgt id='1318'> +2.8679387e+11 </wgt>
<wgt id='1319'> +3.0434735e+11 </wgt>
<wgt id='1320'> +3.0920481e+11 </wgt>
<wgt id='1321'> +2.9340073e+11 </wgt>
<wgt id='1322'> +2.9739218e+11 </wgt>
<wgt id='1323'> +2.9631982e+11 </wgt>
<wgt id='1324'> +3.0084112e+11 </wgt>
<wgt id='1325'> +3.1000085e+11 </wgt>
<wgt id='1326'> +3.0292695e+11 </wgt>
<wgt id='1327'> +2.9555736e+11 </wgt>
<wgt id='1328'> +3.0009380e+11 </wgt>
<wgt id='1329'> +2.9673894e+11 </wgt>
<wgt id='1330'> +2.8880529e+11 </wgt>
<wgt id='1331'> +3.1859458e+11 </wgt>
<wgt id='1332'> +2.8644116e+11 </wgt>
<wgt id='1333'> +2.9988173e+11 </wgt>
<wgt id='1334'> +3.1298719e+11 </wgt>
<wgt id='1335'> +2.9164521e+11 </wgt>
<wgt id='1336'> +3.0322135e+11 </wgt>
<wgt id='1337'> +3.0740995e+11 </wgt>
<wgt id='1338'> +2.8846839e+11 </wgt>
<wgt id='1339'> +3.1848071e+11 </wgt>
<wgt id='1340'> +3.0106112e+11 </wgt>
<wgt id='1341'> +3.0596239e+11 </wgt>
<wgt id='1342'> +3.1245031e+11 </wgt>
<wgt id='1343'> +3.0880647e+11 </wgt>
<wgt id='1344'> +3.0467337e+11 </wgt>
<wgt id='1345'> +2.7660169e+11 </wgt>
<wgt id='1346'> +2.9914210e+11 </wgt>
<wgt id='1347'> +2.8644965e+11 </wgt>
<wgt id='1348'> +2.8711379e+11 </wgt>
<wgt id='1349'> +2.8796248e+11 </wgt>
<wgt id='1350'> +3.0035525e+11 </wgt>
<wgt id='1351'> +2.9480504e+11 </wgt>
<wgt id='1352'> +2.9988337e+11 </wgt>
<wgt id='1353'> +2.9655103e+11 </wgt>
<wgt id='1354'> +3.0610226e+11 </wgt>
<wgt id='1355'> +2.7518440e+11 </wgt>
<wgt id='1356'> +2.7791278e+11 </wgt>
<wgt id='1357'> +2.7588072e+11 </wgt>
<wgt id='1358'> +2.7275812e+11 </wgt>
<wgt id='1359'> +2.7577526e+11 </wgt>
<wgt id='1360'> +2.6878916e+11 </wgt>
<wgt id='1361'> +2.7501109e+11 </wgt>
<wgt id='1362'> +2.7801810e+11 </wgt>
<wgt id='1363'> +2.6962305e+11 </wgt>
<wgt id='1364'> +2.8101096e+11 </wgt>
<wgt id='1365'> +2.7289076e+11 </wgt>
<wgt id='1366'> +2.7456774e+11 </wgt>
<wgt id='1367'> +2.7594573e+11 </wgt>
<wgt id='1368'> +2.7529496e+11 </wgt>
<wgt id='1369'> +2.7897559e+11 </wgt>
<wgt id='1370'> +2.7331270e+11 </wgt>
<wgt id='1371'> +2.7354522e+11 </wgt>
<wgt id='1372'> +2.7930328e+11 </wgt>
<wgt id='1373'> +2.7869141e+11 </wgt>
<wgt id='1374'> +2.6712741e+11 </wgt>
<wgt id='1375'> +2.7449389e+11 </wgt>
<wgt id='1376'> +2.7573649e+11 </wgt>
<wgt id='1377'> +2.7534648e+11 </wgt>
<wgt id='1378'> +2.7162128e+11 </wgt>
<wgt id='1379'> +2.7365882e+11 </wgt>
<wgt id='1380'> +2.7338689e+11 </wgt>
<wgt id='1381'> +2.8041151e+11 </wgt>
<wgt id='1382'> +2.7471406e+11 </wgt>
<wgt id='1383'> +2.7471978e+11 </wgt>
<wgt id='1384'> +2.7324240e+11 </wgt>
<wgt id='1385'> +2.7324201e+11 </wgt>
<wgt id='1386'> +2.7656299e+11 </wgt>
<wgt id='1387'> +2.7403654e+11 </wgt>
<wgt id='1388'> +2.7124426e+11 </wgt>
<wgt id='1389'> +2.7372800e+11 </wgt>
<wgt id='1390'> +2.7470895e+11 </wgt>
<wgt id='1391'> +2.7295722e+11 </wgt>
<wgt id='1392'> +2.7296727e+11 </wgt>
<wgt id='1393'> +2.7361821e+11 </wgt>
<wgt id='1394'> +2.7303277e+11 </wgt>
<wgt id='1395'> +2.7082754e+11 </wgt>
<wgt id='1396'> +2.7610120e+11 </wgt>
<wgt id='1397'> +2.7587172e+11 </wgt>
<wgt id='1398'> +2.7603634e+11 </wgt>
<wgt id='1399'> +2.7118296e+11 </wgt>
<wgt id='1400'> +2.7194815e+11 </wgt>
<wgt id='1401'> +2.7413810e+11 </wgt>
<wgt id='1402'> +2.7832904e+11 </wgt>
<wgt id='1403'> +2.7894311e+11 </wgt>
<wgt id='1404'> +2.7381352e+11 </wgt>
<wgt id='1405'> +2.8130181e+11 </wgt>
<wgt id='1406'> +2.7531387e+11 </wgt>
<wgt id='1407'> +2.7575826e+11 </wgt>
<wgt id='1408'> +2.7868146e+11 </wgt>
<wgt id='1409'> +2.7277197e+11 </wgt>
<wgt id='1410'> +2.7192661e+11 </wgt>
<wgt id='1411'> +2.7488050e+11 </wgt>
<wgt id='1412'> +2.7380552e+11 </wgt>
<wgt id='1413'> +2.7230368e+11 </wgt>
<wgt id='1414'> +2.7712469e+11 </wgt>
<wgt id='1415'> +2.8043247e+11 </wgt>
<wgt id='1416'> +2.7813202e+11 </wgt>
<wgt id='1417'> +2.6913898e+11 </wgt>
<wgt id='1418'> +2.7652089e+11 </wgt>
<wgt id='1419'> +2.7882793e+11 </wgt>
<wgt id='1420'> +2.7423860e+11 </wgt>
<wgt id='1421'> +2.8123341e+11 </wgt>
<wgt id='1422'> +2.6785619e+11 </wgt>
<wgt id='1423'> +2.8034670e+11 </wgt>
<wgt id='1424'> +2.7629545e+11 </wgt>
<wgt id='1425'> +2.7553684e+11 </wgt>
<wgt id='1426'> +2.7836871e+11 </wgt>
<wgt id='1427'> +2.7505928e+11 </wgt>
<wgt id='1428'> +2.7493375e+11 </wgt>
<wgt id='1429'> +2.7187420e+11 </wgt>
<wgt id='1430'> +2.7064885e+11 </wgt>
<wgt id='1431'> +2.7031393e+11 </wgt>
<wgt id='1432'> +2.7657864e+11 </wgt>
<wgt id='1433'> +2.7530928e+11 </wgt>
<wgt id='1434'> +2.8213688e+11 </wgt>
<wgt id='1435'> +2.7424697e+11 </wgt>
<wgt id='1436'> +2.7916024e+11 </wgt>
<wgt id='1437'> +2.7731461e+11 </wgt>
<wgt id='1438'> +2.7350965e+11 </wgt>
<wgt id='1439'> +2.7654283e+11 </wgt>
<wgt id='1440'> +2.7936487e+11 </wgt>
<wgt id='1441'> +2.7455377e+11 </wgt>
<wgt id='1442'> +2.8223789e+11 </wgt>
<wgt id='1443'> +2.7324974e+11 </wgt>
<wgt id='1444'> +2.7427021e+11 </wgt>
<wgt id='1445'> +2.7773442e+11 </wgt>
<wgt id='1446'> +2.7807155e+11 </wgt>
<wgt id='1447'> +2.7152824e+11 </wgt>
<wgt id='1448'> +2.7755875e+11 </wgt>
<wgt id='1449'> +2.7690287e+11 </wgt>
<wgt id='1450'> +2.7360526e+11 </wgt>
<wgt id='1451'> +2.7652295e+11 </wgt>
<wgt id='1452'> +2.7808903e+11 </wgt>
<wgt id='1453'> +2.7934649e+11 </wgt>
<wgt id='1454'> +2.6832546e+11 </wgt>
<wgt id='1455'> +2.7434849e+11 </wgt>
<wgt id='1456'> +2.7438034e+11 </wgt>
<wgt id='1457'> +2.7400131e+11 </wgt>
<wgt id='1458'> +2.7757449e+11 </wgt>
<wgt id='1459'> +3.0535894e+11 </wgt>
<wgt id='1460'> +3.0064977e+11 </wgt>
<wgt id='1461'> +3.4913956e+11 </wgt>
<wgt id='1462'> +2.9883743e+11 </wgt>
<wgt id='1463'> +2.9908273e+11 </wgt>
<wgt id='1464'> +2.9852284e+11 </wgt>
<wgt id='1465'> +2.9889944e+11 </wgt>
<wgt id='1466'> +2.9878078e+11 </wgt>
<wgt id='1467'> +2.9899359e+11 </wgt>
<wgt id='1468'> +2.9858122e+11 </wgt>
<wgt id='1469'> +2.9839090e+11 </wgt>
<wgt id='1470'> +2.9920011e+11 </wgt>
<wgt id='1471'> +2.9931054e+11 </wgt>
<wgt id='1472'> +2.9835015e+11 </wgt>
<wgt id='1473'> +2.9999037e+11 </wgt>
<wgt id='1474'> +2.9773006e+11 </wgt>
<wgt id='1475'> +2.9993649e+11 </wgt>
<wgt id='1476'> +2.9805823e+11 </wgt>
<wgt id='1477'> +2.9826911e+11 </wgt>
<wgt id='1478'> +3.0016501e+11 </wgt>
<wgt id='1479'> +2.9829292e+11 </wgt>
<wgt id='1480'> +2.9921808e+11 </wgt>
<wgt id='1481'> +2.9840664e+11 </wgt>
<wgt id='1482'> +2.9941853e+11 </wgt>
<wgt id='1483'> +2.9893199e+11 </wgt>
<wgt id='1484'> +2.9870334e+11 </wgt>
<wgt id='1485'> +2.9904010e+11 </wgt>
<wgt id='1486'> +2.9834940e+11 </wgt>
<wgt id='1487'> +2.9909104e+11 </wgt>
<wgt id='1488'> +2.9851894e+11 </wgt>
<wgt id='1489'> +2.9848458e+11 </wgt>
<wgt id='1490'> +2.9979402e+11 </wgt>
<wgt id='1491'> +3.0374970e+11 </wgt>
<wgt id='1492'> +2.9609623e+11 </wgt>
<wgt id='1493'> +2.9533276e+11 </wgt>
<wgt id='1494'> +3.0982243e+11 </wgt>
<wgt id='1495'> +2.9818698e+11 </wgt>
<wgt id='1496'> +2.9953518e+11 </wgt>
<wgt id='1497'> +2.9903576e+11 </wgt>
<wgt id='1498'> +2.9856635e+11 </wgt>
<wgt id='1499'> +3.0071783e+11 </wgt>
<wgt id='1500'> +2.9780890e+11 </wgt>
<wgt id='1501'> +2.9929403e+11 </wgt>
<wgt id='1502'> +2.9762744e+11 </wgt>
<wgt id='1503'> +2.9563444e+11 </wgt>
<wgt id='1504'> +3.0225289e+11 </wgt>
<wgt id='1505'> +2.9983215e+11 </wgt>
<wgt id='1506'> +2.9787924e+11 </wgt>
<wgt id='1507'> +3.0030219e+11 </wgt>
<wgt id='1508'> +2.9773373e+11 </wgt>
<wgt id='1509'> +2.9942651e+11 </wgt>
<wgt id='1510'> +2.9630833e+11 </wgt>
<wgt id='1511'> +2.9995699e+11 </wgt>
<wgt id='1512'> +2.9851475e+11 </wgt>
<wgt id='1513'> +2.9875419e+11 </wgt>
<wgt id='1514'> +2.9891804e+11 </wgt>
<wgt id='1515'> +3.0134053e+11 </wgt>
<wgt id='1516'> +2.9922870e+11 </wgt>
<wgt id='1517'> +2.9845519e+11 </wgt>
<wgt id='1518'> +2.9917151e+11 </wgt>
<wgt id='1519'> +2.9718450e+11 </wgt>
<wgt id='1520'> +3.0001335e+11 </wgt>
<wgt id='1521'> +2.9803681e+11 </wgt>
<wgt id='1522'> +2.9931448e+11 </wgt>
<wgt id='1523'> +3.0017697e+11 </wgt>
<wgt id='1524'> +3.0021758e+11 </wgt>
<wgt id='1525'> +3.0002909e+11 </wgt>
<wgt id='1526'> +2.9967152e+11 </wgt>
<wgt id='1527'> +2.9883743e+11 </wgt>
<wgt id='1528'> +2.9859098e+11 </wgt>
<wgt id='1529'> +2.9857553e+11 </wgt>
<wgt id='1530'> +2.9484722e+11 </wgt>
<wgt id='1531'> +2.9634200e+11 </wgt>
<wgt id='1532'> +2.9395528e+11 </wgt>
<wgt id='1533'> +2.9179095e+11 </wgt>
<wgt id='1534'> +2.9473441e+11 </wgt>
<wgt id='1535'> +2.9874796e+11 </wgt>
<wgt id='1536'> +2.9363092e+11 </wgt>
<wgt id='1537'> +2.9624959e+11 </wgt>
<wgt id='1538'> +2.9320009e+11 </wgt>
<wgt id='1539'> +3.0237845e+11 </wgt>
<wgt id='1540'> +2.9561273e+11 </wgt>
<wgt id='1541'> +2.9674452e+11 </wgt>
<wgt id='1542'> +2.9629675e+11 </wgt>
<wgt id='1543'> +2.9750097e+11 </wgt>
<wgt id='1544'> +2.9442799e+11 </wgt>
<wgt id='1545'> +2.9436565e+11 </wgt>
<wgt id='1546'> +2.9241253e+11 </wgt>
<wgt id='1547'> +2.9864631e+11 </wgt>
<wgt id='1548'> +2.9439582e+11 </wgt>
<wgt id='1549'> +2.9291455e+11 </wgt>
<wgt id='1550'> +2.9711641e+11 </wgt>
<wgt id='1551'> +2.9694785e+11 </wgt>
<wgt id='1552'> +2.9574913e+11 </wgt>
<wgt id='1553'> +2.9836552e+11 </wgt>
<wgt id='1554'> +2.9620524e+11 </wgt>
<wgt id='1555'> +2.9697922e+11 </wgt>
<wgt id='1556'> +2.9873174e+11 </wgt>
<wgt id='1557'> +2.9531029e+11 </wgt>
<wgt id='1558'> +2.9637515e+11 </wgt>
<wgt id='1559'> +2.9424313e+11 </wgt>
<wgt id='1560'> +2.9509738e+11 </wgt>
<wgt id='1561'> +2.9268093e+11 </wgt>
<wgt id='1562'> +2.9496304e+11 </wgt>
<wgt id='1563'> +2.9632928e+11 </wgt>
<wgt id='1564'> +2.9591695e+11 </wgt>
<wgt id='1565'> +2.9845103e+11 </wgt>
<wgt id='1566'> +2.9643772e+11 </wgt>
<wgt id='1567'> +2.9981842e+11 </wgt>
<wgt id='1568'> +2.9627758e+11 </wgt>
<wgt id='1569'> +2.9597916e+11 </wgt>
<wgt id='1570'> +3.0123190e+11 </wgt>
<wgt id='1571'> +2.9614964e+11 </wgt>
<wgt id='1572'> +2.9823905e+11 </wgt>
<wgt id='1573'> +2.9943228e+11 </wgt>
<wgt id='1574'> +2.6716681e+11 </wgt>
<wgt id='1575'> +2.6723940e+11 </wgt>
<wgt id='1576'> +2.6709885e+11 </wgt>
<wgt id='1577'> +2.6718521e+11 </wgt>
<wgt id='1578'> +2.6778038e+11 </wgt>
<wgt id='1579'> +2.6802721e+11 </wgt>
<wgt id='1580'> +2.6780014e+11 </wgt>
<wgt id='1581'> +2.6654763e+11 </wgt>
<wgt id='1582'> +2.6624268e+11 </wgt>
<wgt id='1583'> +2.6671437e+11 </wgt>
<wgt id='1584'> +2.6775037e+11 </wgt>
<wgt id='1585'> +2.6736044e+11 </wgt>
<wgt id='1586'> +2.6615651e+11 </wgt>
<wgt id='1587'> +2.6640707e+11 </wgt>
<wgt id='1588'> +2.6590628e+11 </wgt>
<wgt id='1589'> +2.6690688e+11 </wgt>
<wgt id='1590'> +2.6698390e+11 </wgt>
<wgt id='1591'> +2.6723580e+11 </wgt>
<wgt id='1592'> +2.6613477e+11 </wgt>
<wgt id='1593'> +2.6628051e+11 </wgt>
<wgt id='1594'> +2.6800044e+11 </wgt>
<wgt id='1595'> +2.6490335e+11 </wgt>
<wgt id='1596'> +2.7080656e+11 </wgt>
<wgt id='1597'> +2.6891243e+11 </wgt>
<wgt id='1598'> +2.6912830e+11 </wgt>
<wgt id='1599'> +2.6439805e+11 </wgt>
<wgt id='1600'> +2.7162863e+11 </wgt>
<wgt id='1601'> +2.6930728e+11 </wgt>
<wgt id='1602'> +2.6722210e+11 </wgt>
<wgt id='1603'> +2.7795393e+11 </wgt>
<wgt id='1604'> +2.6714092e+11 </wgt>
</rwgt>
</event>
<event>
 9      1 +2.8343000e+11 1.40000000e+03 7.81738600e-03 7.88881200e-02
       21 -1    0    0  504  503 +0.0000000000e+00 +0.0000000000e+00 +3.1937056168e+02 3.1937056168e+02 0.0000000000e+00 0.0000e+00 1.0000e+00
       21 -1    0    0  503  504 -0.0000000000e+00 -0.0000000000e+00 -1.5342675589e+03 1.5342675589e+03 0.0000000000e+00 0.0000e+00 1.0000e+00
       45  2    1    2    0    0 +0.0000000000e+00 +0.0000000000e+00 -1.2148969972e+03 1.8536381206e+03 1.3999998458e+03 0.0000e+00 0.0000e+00
       25  2    3    3    0    0 +4.7669934063e+02 -3.5989794864e+02 -1.0710591814e+03 1.2327051531e+03 1.2500171837e+02 0.0000e+00 0.0000e+00
       35  2    3    3    0    0 -4.7669934063e+02 +3.5989794864e+02 -1.4383781577e+02 6.2093296746e+02 8.9997989055e+01 0.0000e+00 0.0000e+00
        5  1    5    5  501    0 -2.1421116022e+02 +1.6016885234e+02 -1.8788515547e+01 2.6816272771e+02 4.2140000000e+00 0.0000e+00 -1.0000e+00
       -5  1    5    5    0  501 -2.6248818041e+02 +1.9972909630e+02 -1.2504930023e+02 3.5277023974e+02 4.2140000000e+00 0.0000e+00 -1.0000e+00
        5  1    4    4  502    0 +1.0714623986e+02 -8.5188551491e+01 -3.6402834607e+02 3.8893675650e+02 4.2140000000e+00 0.0000e+00 -1.0000e+00
       -5  1    4    4    0  502 +3.6955310077e+02 -2.7470939715e+02 -7.0703083536e+02 8.4376839661e+02 4.2140000000e+00 0.0000e+00 -1.0000e+00
<mgrwt>
<rscale>  0 0.13999998E+04</rscale>
<asrwt>0</asrwt>
<pdfrwt beam="1">  1       21 0.49133933E-01 0.13999998E+04</pdfrwt>
<pdfrwt beam="2">  1       21 0.23604116E+00 0.13999998E+04</pdfrwt>
<totfact> 0.20215053E+02</totfact>
</mgrwt>
<rwgt>
<wgt id='1001'> +2.8343000e+11 </wgt>
<wgt id='1002'> +2.9112304e+11 </wgt>
<wgt id='1003'> +2.9111998e+11 </wgt>
<wgt id='1004'> +3.2894243e+11 </wgt>
<wgt id='1005'> +2.8343000e+11 </wgt>
<wgt id='1006'> +2.8343000e+11 </wgt>
<wgt id='1007'> +2.9112304e+11 </wgt>
<wgt id='1008'> +2.9111998e+11 </wgt>
<wgt id='1009'> +3.2894243e+11 </wgt>
<wgt id='1010'> +2.8343000e+11 </wgt>
<wgt id='1011'> +2.8343000e+11 </wgt>
<wgt id='1012'> +2.9112304e+11 </wgt>
<wgt id='1013'> +2.9111998e+11 </wgt>
<wgt id='1014'> +3.2894243e+11 </wgt>
<wgt id='1015'> +2.8343000e+11 </wgt>
<wgt id='1016'> +2.5318550e+11 </wgt>
<wgt id='1017'> +2.5964466e+11 </wgt>
<wgt id='1018'> +2.5964209e+11 </wgt>
<wgt id='1019'> +2.9111998e+11 </wgt>
<wgt id='1020'> +2.5318550e+11 </wgt>
<wgt id='1021'> +2.5318550e+11 </wgt>
<wgt id='1022'> +2.5964466e+11 </wgt>
<wgt id='1023'> +2.5964209e+11 </wgt>
<wgt id='1024'> +2.9111998e+11 </wgt>
<wgt id='1025'> +2.5318550e+11 </wgt>
<wgt id='1026'> +2.5318550e+11 </wgt>
<wgt id='1027'> +2.5964466e+11 </wgt>
<wgt id='1028'> +2.5964209e+11 </wgt>
<wgt id='1029'> +2.9111998e+11 </wgt>
<wgt id='1030'> +2.5318550e+11 </wgt>
<wgt id='1031'> +3.1966393e+11 </wgt>
<wgt id='1032'> +3.2894613e+11 </wgt>
<wgt id='1033'> +3.2894243e+11 </wgt>
<wgt id='1034'> +3.7484512e+11 </wgt>
<wgt id='1035'> +3.1966393e+11 </wgt>
<wgt id='1036'> +3.1966393e+11 </wgt>
<wgt id='1037'> +3.2894613e+11 </wgt>
<wgt id='1038'> +3.2894243e+11 </wgt>
<wgt id='1039'> +3.7484512e+11 </wgt>
<wgt id='1040'> +3.1966393e+11 </wgt>
<wgt id='1041'> +3.1966393e+11 </wgt>
<wgt id='1042'> +3.2894613e+11 </wgt>
<wgt id='1043'> +3.2894243e+11 </wgt>
<wgt id='1044'> +3.7484512e+11 </wgt>
<wgt id='1045'> +3.1966393e+11 </wgt>
<wgt id='1046'> +2.8343000e+11 </wgt>
<wgt id='1047'> +2.8343000e+11 </wgt>
<wgt id='1048'> +2.8343000e+11 </wgt>
<wgt id='1049'> +2.8305867e+11 </wgt>
<wgt id='1050'> +2.8310216e+11 </wgt>
<wgt id='1051'> +2.8353736e+11 </wgt>
<wgt id='1052'> +2.8396615e+11 </wgt>
<wgt id='1053'> +2.8146956e+11 </wgt>
<wgt id='1054'> +2.8407227e+11 </wgt>
<wgt id='1055'> +2.8201202e+11 </wgt>
<wgt id='1056'> +2.8178574e+11 </wgt>
<wgt id='1057'> +2.8230821e+11 </wgt>
<wgt id='1058'> +2.8247236e+11 </wgt>
<wgt id='1059'> +2.8579356e+11 </wgt>
<wgt id='1060'> +2.8358875e+11 </wgt>
<wgt id='1061'> +2.8408876e+11 </wgt>
<wgt id='1062'> +2.8427464e+11 </wgt>
<wgt id='1063'> +2.8474773e+11 </wgt>
<wgt id='1064'> +2.8422315e+11 </wgt>
<wgt id='1065'> +2.8507635e+11 </wgt>
<wgt id='1066'> +2.8184838e+11 </wgt>
<wgt id='1067'> +2.8245133e+11 </wgt>
<wgt id='1068'> +2.8415182e+11 </wgt>
<wgt id='1069'> +2.8246141e+11 </wgt>
<wgt id='1070'> +2.8408644e+11 </wgt>
<wgt id='1071'> +2.8286916e+11 </wgt>
<wgt id='1072'> +2.8416917e+11 </wgt>
<wgt id='1073'> +2.8191420e+11 </wgt>
<wgt id='1074'> +2.8221922e+11 </wgt>
<wgt id='1075'> +2.8313883e+11 </wgt>
<wgt id='1076'> +2.8220599e+11 </wgt>
<wgt id='1077'> +2.8196048e+11 </wgt>
<wgt id='1078'> +2.8370029e+11 </wgt>
<wgt id='1079'> +2.8238577e+11 </wgt>
<wgt id='1080'> +2.8273012e+11 </wgt>
<wgt id='1081'> +2.8316057e+11 </wgt>
<wgt id='1082'> +2.8277821e+11 </wgt>
<wgt id='1083'> +2.8447393e+11 </wgt>
<wgt id='1084'> +2.8403183e+11 </wgt>
<wgt id='1085'> +2.8242075e+11 </wgt>
<wgt id='1086'> +2.8406279e+11 </wgt>
<wgt id='1087'> +2.8360672e+11 </wgt>
<wgt id='1088'> +2.8271869e+11 </wgt>
<wgt id='1089'> +2.8249877e+11 </wgt>
<wgt id='1090'> +2.8424666e+11 </wgt>
<wgt id='1091'> +2.8367120e+11 </wgt>
<wgt id='1092'> +2.8364498e+11 </wgt>
<wgt id='1093'> +2.8340176e+11 </wgt>
<wgt id='1094'> +2.8197744e+11 </wgt>
<wgt id='1095'> +2.8375718e+11 </wgt>
<wgt id='1096'> +2.8340363e+11 </wgt>
<wgt id='1097'> +2.8275449e+11 </wgt>
<wgt id='1098'> +2.8311245e+11 </wgt>
<wgt id='1099'> +2.8325575e+11 </wgt>
<wgt id='1100'> +2.8397656e+11 </wgt>
<wgt id='1101'> +2.8340050e+11 </wgt>
<wgt id='1102'> +2.8326667e+11 </wgt>
<wgt id='1103'> +2.8244425e+11 </wgt>
<wgt id='1104'> +2.8348808e+11 </wgt>
<wgt id='1105'> +2.8352997e+11 </wgt>
<wgt id='1106'> +2.8388325e+11 </wgt>
<wgt id='1107'> +2.8377329e+11 </wgt>
<wgt id='1108'> +2.8318043e+11 </wgt>
<wgt id='1109'> +2.8332024e+11 </wgt>
<wgt id='1110'> +2.8362037e+11 </wgt>
<wgt id='1111'> +2.8385853e+11 </wgt>
<wgt id='1112'> +2.8328429e+11 </wgt>
<wgt id='1113'> +2.8381116e+11 </wgt>
<wgt id='1114'> +2.8312276e+11 </wgt>
<wgt id='1115'> +2.8277948e+11 </wgt>
<wgt id='1116'> +2.8428332e+11 </wgt>
<wgt id='1117'> +2.8333783e+11 </wgt>
<wgt id='1118'> +2.8388848e+11 </wgt>
<wgt id='1119'> +2.8291806e+11 </wgt>
<wgt id='1120'> +2.8286512e+11 </wgt>
<wgt id='1121'> +2.8348401e+11 </wgt>
<wgt id='1122'> +2.8294202e+11 </wgt>
<wgt id='1123'> +2.8336343e+11 </wgt>
<wgt id='1124'> +2.8355609e+11 </wgt>
<wgt id='1125'> +2.8361858e+11 </wgt>
<wgt id='1126'> +2.8357750e+11 </wgt>
<wgt id='1127'> +2.8331595e+11 </wgt>
<wgt id='1128'> +2.8331633e+11 </wgt>
<wgt id='1129'> +2.8319805e+11 </wgt>
<wgt id='1130'> +2.8345670e+11 </wgt>
<wgt id='1131'> +2.8408700e+11 </wgt>
<wgt id='1132'> +2.8328039e+11 </wgt>
<wgt id='1133'> +2.8361844e+11 </wgt>
<wgt id='1134'> +2.8338940e+11 </wgt>
<wgt id='1135'> +2.8347013e+11 </wgt>
<wgt id='1136'> +2.8324808e+11 </wgt>
<wgt id='1137'> +2.8316152e+11 </wgt>
<wgt id='1138'> +2.8359004e+11 </wgt>
<wgt id='1139'> +2.8359794e+11 </wgt>
<wgt id='1140'> +2.8374295e+11 </wgt>
<wgt id='1141'> +2.8309879e+11 </wgt>
<wgt id='1142'> +2.8349164e+11 </wgt>
<wgt id='1143'> +2.8366047e+11 </wgt>
<wgt id='1144'> +2.8332513e+11 </wgt>
<wgt id='1145'> +2.8362020e+11 </wgt>
<wgt id='1146'> +2.8354816e+11 </wgt>
<wgt id='1147'> +2.8350137e+11 </wgt>
<wgt id='1148'> +2.8343000e+11 </wgt>
<wgt id='1149'> +2.8343000e+11 </wgt>
<wgt id='1150'> +2.9328778e+11 </wgt>
<wgt id='1151'> +2.7657616e+11 </wgt>
<wgt id='1152'> +2.7078031e+11 </wgt>
<wgt id='1153'> +2.8556089e+11 </wgt>
<wgt id='1154'> +2.7726370e+11 </wgt>
<wgt id='1155'> +2.9843752e+11 </wgt>
<wgt id='1156'> +2.8247877e+11 </wgt>
<wgt id='1157'> +2.7779093e+11 </wgt>
<wgt id='1158'> +2.7740441e+11 </wgt>
<wgt id='1159'> +2.9234420e+11 </wgt>
<wgt id='1160'> +2.8348848e+11 </wgt>
<wgt id='1161'> +2.9569167e+11 </wgt>
<wgt id='1162'> +2.8710421e+11 </wgt>
<wgt id='1163'> +2.8801457e+11 </wgt>
<wgt id='1164'> +2.7441413e+11 </wgt>
<wgt id='1165'> +2.7527874e+11 </wgt>
<wgt id='1166'> +2.8373463e+11 </wgt>
<wgt id='1167'> +2.7923813e+11 </wgt>
<wgt id='1168'> +2.7227945e+11 </wgt>
<wgt id='1169'> +2.7634105e+11 </wgt>
<wgt id='1170'> +2.8464866e+11 </wgt>
<wgt id='1171'> +2.7423547e+11 </wgt>
<wgt id='1172'> +2.7193548e+11 </wgt>
<wgt id='1173'> +2.8729671e+11 </wgt>
<wgt id='1174'> +2.7774431e+11 </wgt>
<wgt id='1175'> +2.7898235e+11 </wgt>
<wgt id='1176'> +2.8847755e+11 </wgt>
<wgt id='1177'> +2.8159463e+11 </wgt>
<wgt id='1178'> +2.8647172e+11 </wgt>
<wgt id='1179'> +2.9051854e+11 </wgt>
<wgt id='1180'> +2.7572647e+11 </wgt>
<wgt id='1181'> +2.9260659e+11 </wgt>
<wgt id='1182'> +2.8254763e+11 </wgt>
<wgt id='1183'> +2.8918479e+11 </wgt>
<wgt id='1184'> +2.6796973e+11 </wgt>
<wgt id='1185'> +2.9125070e+11 </wgt>
<wgt id='1186'> +2.7901999e+11 </wgt>
<wgt id='1187'> +2.8767736e+11 </wgt>
<wgt id='1188'> +2.9362036e+11 </wgt>
<wgt id='1189'> +2.8349709e+11 </wgt>
<wgt id='1190'> +2.8047116e+11 </wgt>
<wgt id='1191'> +2.9243254e+11 </wgt>
<wgt id='1192'> +2.8730392e+11 </wgt>
<wgt id='1193'> +2.8794658e+11 </wgt>
<wgt id='1194'> +2.7637937e+11 </wgt>
<wgt id='1195'> +2.8985099e+11 </wgt>
<wgt id='1196'> +2.8950448e+11 </wgt>
<wgt id='1197'> +2.9072786e+11 </wgt>
<wgt id='1198'> +2.8625582e+11 </wgt>
<wgt id='1199'> +2.8464650e+11 </wgt>
<wgt id='1200'> +2.9312753e+11 </wgt>
<wgt id='1201'> +2.8458337e+11 </wgt>
<wgt id='1202'> +2.8344001e+11 </wgt>
<wgt id='1203'> +2.8730161e+11 </wgt>
<wgt id='1204'> +2.7864111e+11 </wgt>
<wgt id='1205'> +2.8736607e+11 </wgt>
<wgt id='1206'> +2.8117635e+11 </wgt>
<wgt id='1207'> +2.9290200e+11 </wgt>
<wgt id='1208'> +2.7291563e+11 </wgt>
<wgt id='1209'> +2.8579683e+11 </wgt>
<wgt id='1210'> +2.8653567e+11 </wgt>
<wgt id='1211'> +2.7867270e+11 </wgt>
<wgt id='1212'> +2.8184923e+11 </wgt>
<wgt id='1213'> +2.8417054e+11 </wgt>
<wgt id='1214'> +2.8030716e+11 </wgt>
<wgt id='1215'> +2.7789674e+11 </wgt>
<wgt id='1216'> +2.7126458e+11 </wgt>
<wgt id='1217'> +2.8368207e+11 </wgt>
<wgt id='1218'> +2.8450914e+11 </wgt>
<wgt id='1219'> +2.9249582e+11 </wgt>
<wgt id='1220'> +2.8123635e+11 </wgt>
<wgt id='1221'> +2.7582763e+11 </wgt>
<wgt id='1222'> +2.7935620e+11 </wgt>
<wgt id='1223'> +2.7464087e+11 </wgt>
<wgt id='1224'> +2.8186480e+11 </wgt>
<wgt id='1225'> +2.7795385e+11 </wgt>
<wgt id='1226'> +2.8494297e+11 </wgt>
<wgt id='1227'> +2.7973553e+11 </wgt>
<wgt id='1228'> +2.8168221e+11 </wgt>
<wgt id='1229'> +2.9861190e+11 </wgt>
<wgt id='1230'> +2.8684849e+11 </wgt>
<wgt id='1231'> +2.7527874e+11 </wgt>
<wgt id='1232'> +2.8938776e+11 </wgt>
<wgt id='1233'> +2.7761757e+11 </wgt>
<wgt id='1234'> +2.7859603e+11 </wgt>
<wgt id='1235'> +3.0235339e+11 </wgt>
<wgt id='1236'> +2.8179312e+11 </wgt>
<wgt id='1237'> +2.9273290e+11 </wgt>
<wgt id='1238'> +2.8132817e+11 </wgt>
<wgt id='1239'> +2.8806706e+11 </wgt>
<wgt id='1240'> +2.7403512e+11 </wgt>
<wgt id='1241'> +2.9098327e+11 </wgt>
<wgt id='1242'> +2.8193784e+11 </wgt>
<wgt id='1243'> +2.8240397e+11 </wgt>
<wgt id='1244'> +2.9273484e+11 </wgt>
<wgt id='1245'> +2.7103941e+11 </wgt>
<wgt id='1246'> +3.0342599e+11 </wgt>
<wgt id='1247'> +2.8153969e+11 </wgt>
<wgt id='1248'> +2.7435877e+11 </wgt>
<wgt id='1249'> +2.7564575e+11 </wgt>
<wgt id='1250'> +2.9580139e+11 </wgt>
<wgt id='1251'> +3.0611886e+11 </wgt>
<wgt id='1252'> +2.8925774e+11 </wgt>
<wgt id='1253'> +3.0135880e+11 </wgt>
<wgt id='1254'> +2.9220545e+11 </wgt>
<wgt id='1255'> +3.1038259e+11 </wgt>
<wgt id='1256'> +3.0820287e+11 </wgt>
<wgt id='1257'> +3.0300893e+11 </wgt>
<wgt id='1258'> +2.9204296e+11 </wgt>
<wgt id='1259'> +3.1540747e+11 </wgt>
<wgt id='1260'> +3.3571826e+11 </wgt>
<wgt id='1261'> +3.2073660e+11 </wgt>
<wgt id='1262'> +2.9959154e+11 </wgt>
<wgt id='1263'> +3.0393123e+11 </wgt>
<wgt id='1264'> +3.0502442e+11 </wgt>
<wgt id='1265'> +2.9068314e+11 </wgt>
<wgt id='1266'> +3.0810546e+11 </wgt>
<wgt id='1267'> +3.6906649e+11 </wgt>
<wgt id='1268'> +2.8757367e+11 </wgt>
<wgt id='1269'> +2.8667455e+11 </wgt>
<wgt id='1270'> +3.1473186e+11 </wgt>
<wgt id='1271'> +2.6120669e+11 </wgt>
<wgt id='1272'> +2.9718057e+11 </wgt>
<wgt id='1273'> +2.9256072e+11 </wgt>
<wgt id='1274'> +2.8976465e+11 </wgt>
<wgt id='1275'> +2.9172720e+11 </wgt>
<wgt id='1276'> +3.1116640e+11 </wgt>
<wgt id='1277'> +3.0754546e+11 </wgt>
<wgt id='1278'> +3.0546057e+11 </wgt>
<wgt id='1279'> +2.7894100e+11 </wgt>
<wgt id='1280'> +2.8895281e+11 </wgt>
<wgt id='1281'> +2.8646139e+11 </wgt>
<wgt id='1282'> +2.9458361e+11 </wgt>
<wgt id='1283'> +3.2237481e+11 </wgt>
<wgt id='1284'> +3.0409676e+11 </wgt>
<wgt id='1285'> +3.0760009e+11 </wgt>
<wgt id='1286'> +3.3820253e+11 </wgt>
<wgt id='1287'> +3.2700031e+11 </wgt>
<wgt id='1288'> +3.5188190e+11 </wgt>
<wgt id='1289'> +3.2206320e+11 </wgt>
<wgt id='1290'> +3.1558989e+11 </wgt>
<wgt id='1291'> +2.8100816e+11 </wgt>
<wgt id='1292'> +3.0888616e+11 </wgt>
<wgt id='1293'> +3.0563662e+11 </wgt>
<wgt id='1294'> +3.3821263e+11 </wgt>
<wgt id='1295'> +3.1535523e+11 </wgt>
<wgt id='1296'> +3.4534499e+11 </wgt>
<wgt id='1297'> +2.8692251e+11 </wgt>
<wgt id='1298'> +2.9262289e+11 </wgt>
<wgt id='1299'> +3.0868517e+11 </wgt>
<wgt id='1300'> +2.7277374e+11 </wgt>
<wgt id='1301'> +2.8080044e+11 </wgt>
<wgt id='1302'> +2.8081672e+11 </wgt>
<wgt id='1303'> +3.0995844e+11 </wgt>
<wgt id='1304'> +3.4259894e+11 </wgt>
<wgt id='1305'> +2.9822124e+11 </wgt>
<wgt id='1306'> +3.0765989e+11 </wgt>
<wgt id='1307'> +2.7888873e+11 </wgt>
<wgt id='1308'> +3.3724075e+11 </wgt>
<wgt id='1309'> +3.0730641e+11 </wgt>
<wgt id='1310'> +3.0685141e+11 </wgt>
<wgt id='1311'> +2.9338977e+11 </wgt>
<wgt id='1312'> +3.3143530e+11 </wgt>
<wgt id='1313'> +3.1230643e+11 </wgt>
<wgt id='1314'> +2.8679176e+11 </wgt>
<wgt id='1315'> +2.8883343e+11 </wgt>
<wgt id='1316'> +3.0114945e+11 </wgt>
<wgt id='1317'> +3.2691492e+11 </wgt>
<wgt id='1318'> +2.9283766e+11 </wgt>
<wgt id='1319'> +3.0115980e+11 </wgt>
<wgt id='1320'> +3.2438463e+11 </wgt>
<wgt id='1321'> +3.1101423e+11 </wgt>
<wgt id='1322'> +3.2469756e+11 </wgt>
<wgt id='1323'> +2.8076792e+11 </wgt>
<wgt id='1324'> +3.1780967e+11 </wgt>
<wgt id='1325'> +3.1646487e+11 </wgt>
<wgt id='1326'> +3.1423908e+11 </wgt>
<wgt id='1327'> +3.2508349e+11 </wgt>
<wgt id='1328'> +3.0435731e+11 </wgt>
<wgt id='1329'> +2.9748252e+11 </wgt>
<wgt id='1330'> +2.8165793e+11 </wgt>
<wgt id='1331'> +3.2807318e+11 </wgt>
<wgt id='1332'> +3.0846290e+11 </wgt>
<wgt id='1333'> +3.0382687e+11 </wgt>
<wgt id='1334'> +3.2737095e+11 </wgt>
<wgt id='1335'> +2.8923778e+11 </wgt>
<wgt id='1336'> +3.3012010e+11 </wgt>
<wgt id='1337'> +3.1188238e+11 </wgt>
<wgt id='1338'> +2.8536603e+11 </wgt>
<wgt id='1339'> +3.0932084e+11 </wgt>
<wgt id='1340'> +3.2307735e+11 </wgt>
<wgt id='1341'> +3.4656559e+11 </wgt>
<wgt id='1342'> +2.9465543e+11 </wgt>
<wgt id='1343'> +3.1058840e+11 </wgt>
<wgt id='1344'> +3.2665394e+11 </wgt>
<wgt id='1345'> +2.5041491e+11 </wgt>
<wgt id='1346'> +3.0808165e+11 </wgt>
<wgt id='1347'> +3.0030091e+11 </wgt>
<wgt id='1348'> +2.9276851e+11 </wgt>
<wgt id='1349'> +2.9150831e+11 </wgt>
<wgt id='1350'> +3.2318845e+11 </wgt>
<wgt id='1351'> +2.8910063e+11 </wgt>
<wgt id='1352'> +3.0821196e+11 </wgt>
<wgt id='1353'> +3.0674005e+11 </wgt>
<wgt id='1354'> +3.1504403e+11 </wgt>
<wgt id='1355'> +2.8267204e+11 </wgt>
<wgt id='1356'> +2.8510084e+11 </wgt>
<wgt id='1357'> +2.8415112e+11 </wgt>
<wgt id='1358'> +2.8134407e+11 </wgt>
<wgt id='1359'> +2.8058107e+11 </wgt>
<wgt id='1360'> +2.7819395e+11 </wgt>
<wgt id='1361'> +2.8087669e+11 </wgt>
<wgt id='1362'> +2.9206375e+11 </wgt>
<wgt id='1363'> +2.8284604e+11 </wgt>
<wgt id='1364'> +2.9082811e+11 </wgt>
<wgt id='1365'> +2.8052270e+11 </wgt>
<wgt id='1366'> +2.7880589e+11 </wgt>
<wgt id='1367'> +2.8008767e+11 </wgt>
<wgt id='1368'> +2.8446282e+11 </wgt>
<wgt id='1369'> +2.8625002e+11 </wgt>
<wgt id='1370'> +2.7666249e+11 </wgt>
<wgt id='1371'> +2.8167076e+11 </wgt>
<wgt id='1372'> +2.8050980e+11 </wgt>
<wgt id='1373'> +2.8711985e+11 </wgt>
<wgt id='1374'> +2.7837591e+11 </wgt>
<wgt id='1375'> +2.8481965e+11 </wgt>
<wgt id='1376'> +2.8189647e+11 </wgt>
<wgt id='1377'> +2.8235048e+11 </wgt>
<wgt id='1378'> +2.8588939e+11 </wgt>
<wgt id='1379'> +2.8069825e+11 </wgt>
<wgt id='1380'> +2.8010498e+11 </wgt>
<wgt id='1381'> +2.8637205e+11 </wgt>
<wgt id='1382'> +2.8018441e+11 </wgt>
<wgt id='1383'> +2.7907394e+11 </wgt>
<wgt id='1384'> +2.7608977e+11 </wgt>
<wgt id='1385'> +2.7652727e+11 </wgt>
<wgt id='1386'> +2.7882201e+11 </wgt>
<wgt id='1387'> +2.8121915e+11 </wgt>
<wgt id='1388'> +2.7858504e+11 </wgt>
<wgt id='1389'> +2.7995743e+11 </wgt>
<wgt id='1390'> +2.8622440e+11 </wgt>
<wgt id='1391'> +2.8408246e+11 </wgt>
<wgt id='1392'> +2.7645954e+11 </wgt>
<wgt id='1393'> +2.8558035e+11 </wgt>
<wgt id='1394'> +2.8335588e+11 </wgt>
<wgt id='1395'> +2.7663795e+11 </wgt>
<wgt id='1396'> +2.8286724e+11 </wgt>
<wgt id='1397'> +2.8257263e+11 </wgt>
<wgt id='1398'> +2.8926752e+11 </wgt>
<wgt id='1399'> +2.8104488e+11 </wgt>
<wgt id='1400'> +2.7640102e+11 </wgt>
<wgt id='1401'> +2.8315113e+11 </wgt>
<wgt id='1402'> +2.8469881e+11 </wgt>
<wgt id='1403'> +2.9439750e+11 </wgt>
<wgt id='1404'> +2.8753330e+11 </wgt>
<wgt id='1405'> +2.9184912e+11 </wgt>
<wgt id='1406'> +2.8794478e+11 </wgt>
<wgt id='1407'> +2.8521194e+11 </wgt>
<wgt id='1408'> +2.9287018e+11 </wgt>
<wgt id='1409'> +2.7615720e+11 </wgt>
<wgt id='1410'> +2.7463676e+11 </wgt>
<wgt id='1411'> +2.8233408e+11 </wgt>
<wgt id='1412'> +2.8413408e+11 </wgt>
<wgt id='1413'> +2.8859387e+11 </wgt>
<wgt id='1414'> +2.8525210e+11 </wgt>
<wgt id='1415'> +2.7898373e+11 </wgt>
<wgt id='1416'> +2.8286904e+11 </wgt>
<wgt id='1417'> +2.8074726e+11 </wgt>
<wgt id='1418'> +2.8064699e+11 </wgt>
<wgt id='1419'> +2.8535302e+11 </wgt>
<wgt id='1420'> +2.7419883e+11 </wgt>
<wgt id='1421'> +2.9033459e+11 </wgt>
<wgt id='1422'> +2.7443322e+11 </wgt>
<wgt id='1423'> +2.8551275e+11 </wgt>
<wgt id='1424'> +2.8176050e+11 </wgt>
<wgt id='1425'> +2.8243345e+11 </wgt>
<wgt id='1426'> +2.8576372e+11 </wgt>
<wgt id='1427'> +2.8003760e+11 </wgt>
<wgt id='1428'> +2.7956077e+11 </wgt>
<wgt id='1429'> +2.8408305e+11 </wgt>
<wgt id='1430'> +2.7945913e+11 </wgt>
<wgt id='1431'> +2.8136385e+11 </wgt>
<wgt id='1432'> +2.7655832e+11 </wgt>
<wgt id='1433'> +2.7561154e+11 </wgt>
<wgt id='1434'> +2.8814944e+11 </wgt>
<wgt id='1435'> +2.8277052e+11 </wgt>
<wgt id='1436'> +2.8668239e+11 </wgt>
<wgt id='1437'> +2.8028035e+11 </wgt>
<wgt id='1438'> +2.8257694e+11 </wgt>
<wgt id='1439'> +2.9132389e+11 </wgt>
<wgt id='1440'> +2.8222226e+11 </wgt>
<wgt id='1441'> +2.7795056e+11 </wgt>
<wgt id='1442'> +2.8377976e+11 </wgt>
<wgt id='1443'> +2.7769268e+11 </wgt>
<wgt id='1444'> +2.9144752e+11 </wgt>
<wgt id='1445'> +2.8012422e+11 </wgt>
<wgt id='1446'> +2.9359769e+11 </wgt>
<wgt id='1447'> +2.8420508e+11 </wgt>
<wgt id='1448'> +2.8558187e+11 </wgt>
<wgt id='1449'> +2.8548388e+11 </wgt>
<wgt id='1450'> +2.8144460e+11 </wgt>
<wgt id='1451'> +2.8129386e+11 </wgt>
<wgt id='1452'> +2.8517352e+11 </wgt>
<wgt id='1453'> +2.8544062e+11 </wgt>
<wgt id='1454'> +2.7311325e+11 </wgt>
<wgt id='1455'> +2.8094922e+11 </wgt>
<wgt id='1456'> +2.8050853e+11 </wgt>
<wgt id='1457'> +2.8305551e+11 </wgt>
<wgt id='1458'> +2.9099690e+11 </wgt>
<wgt id='1459'> +3.1510397e+11 </wgt>
<wgt id='1460'> +3.0957633e+11 </wgt>
<wgt id='1461'> +3.7393495e+11 </wgt>
<wgt id='1462'> +3.0414426e+11 </wgt>
<wgt id='1463'> +3.0435855e+11 </wgt>
<wgt id='1464'> +3.0386947e+11 </wgt>
<wgt id='1465'> +3.0421447e+11 </wgt>
<wgt id='1466'> +3.0408015e+11 </wgt>
<wgt id='1467'> +3.0424449e+11 </wgt>
<wgt id='1468'> +3.0397981e+11 </wgt>
<wgt id='1469'> +3.0371313e+11 </wgt>
<wgt id='1470'> +3.0449441e+11 </wgt>
<wgt id='1471'> +3.0458805e+11 </wgt>
<wgt id='1472'> +3.0368715e+11 </wgt>
<wgt id='1473'> +3.0536937e+11 </wgt>
<wgt id='1474'> +3.0296753e+11 </wgt>
<wgt id='1475'> +3.0529969e+11 </wgt>
<wgt id='1476'> +3.0332532e+11 </wgt>
<wgt id='1477'> +3.0360005e+11 </wgt>
<wgt id='1478'> +3.0541593e+11 </wgt>
<wgt id='1479'> +3.0388623e+11 </wgt>
<wgt id='1480'> +3.0433087e+11 </wgt>
<wgt id='1481'> +3.0351055e+11 </wgt>
<wgt id='1482'> +3.0500276e+11 </wgt>
<wgt id='1483'> +3.0418521e+11 </wgt>
<wgt id='1484'> +3.0409200e+11 </wgt>
<wgt id='1485'> +3.0435145e+11 </wgt>
<wgt id='1486'> +3.0364513e+11 </wgt>
<wgt id='1487'> +3.0443146e+11 </wgt>
<wgt id='1488'> +3.0378517e+11 </wgt>
<wgt id='1489'> +3.0375671e+11 </wgt>
<wgt id='1490'> +3.0519550e+11 </wgt>
<wgt id='1491'> +3.0930680e+11 </wgt>
<wgt id='1492'> +3.0126942e+11 </wgt>
<wgt id='1493'> +3.0037449e+11 </wgt>
<wgt id='1494'> +3.1596952e+11 </wgt>
<wgt id='1495'> +3.0322225e+11 </wgt>
<wgt id='1496'> +3.0513498e+11 </wgt>
<wgt id='1497'> +3.0436835e+11 </wgt>
<wgt id='1498'> +3.0383863e+11 </wgt>
<wgt id='1499'> +3.0637187e+11 </wgt>
<wgt id='1500'> +3.0292915e+11 </wgt>
<wgt id='1501'> +3.0441690e+11 </wgt>
<wgt id='1502'> +3.0343484e+11 </wgt>
<wgt id='1503'> +2.9925189e+11 </wgt>
<wgt id='1504'> +3.0969852e+11 </wgt>
<wgt id='1505'> +3.0468727e+11 </wgt>
<wgt id='1506'> +3.0360465e+11 </wgt>
<wgt id='1507'> +3.0832928e+11 </wgt>
<wgt id='1508'> +2.9701201e+11 </wgt>
<wgt id='1509'> +3.0502613e+11 </wgt>
<wgt id='1510'> +3.0033506e+11 </wgt>
<wgt id='1511'> +3.0539165e+11 </wgt>
<wgt id='1512'> +3.0381591e+11 </wgt>
<wgt id='1513'> +3.0391073e+11 </wgt>
<wgt id='1514'> +3.0442162e+11 </wgt>
<wgt id='1515'> +3.0858338e+11 </wgt>
<wgt id='1516'> +3.0328136e+11 </wgt>
<wgt id='1517'> +3.0353006e+11 </wgt>
<wgt id='1518'> +3.0508478e+11 </wgt>
<wgt id='1519'> +3.0199962e+11 </wgt>
<wgt id='1520'> +3.0566123e+11 </wgt>
<wgt id='1521'> +3.0271040e+11 </wgt>
<wgt id='1522'> +3.0494194e+11 </wgt>
<wgt id='1523'> +3.0533988e+11 </wgt>
<wgt id='1524'> +3.0590129e+11 </wgt>
<wgt id='1525'> +3.0469480e+11 </wgt>
<wgt id='1526'> +3.0589732e+11 </wgt>
<wgt id='1527'> +3.0414426e+11 </wgt>
<wgt id='1528'> +3.0255331e+11 </wgt>
<wgt id='1529'> +3.0555436e+11 </wgt>
<wgt id='1530'> +2.9904328e+11 </wgt>
<wgt id='1531'> +3.0955135e+11 </wgt>
<wgt id='1532'> +3.0989087e+11 </wgt>
<wgt id='1533'> +3.0363553e+11 </wgt>
<wgt id='1534'> +3.0771214e+11 </wgt>
<wgt id='1535'> +3.1313698e+11 </wgt>
<wgt id='1536'> +3.0579540e+11 </wgt>
<wgt id='1537'> +3.1215156e+11 </wgt>
<wgt id='1538'> +3.0510928e+11 </wgt>
<wgt id='1539'> +3.1458940e+11 </wgt>
<wgt id='1540'> +3.1144435e+11 </wgt>
<wgt id='1541'> +3.1161720e+11 </wgt>
<wgt id='1542'> +3.0986212e+11 </wgt>
<wgt id='1543'> +3.1174082e+11 </wgt>
<wgt id='1544'> +3.0786403e+11 </wgt>
<wgt id='1545'> +3.0755016e+11 </wgt>
<wgt id='1546'> +3.0584208e+11 </wgt>
<wgt id='1547'> +3.1180612e+11 </wgt>
<wgt id='1548'> +3.0859158e+11 </wgt>
<wgt id='1549'> +3.0595121e+11 </wgt>
<wgt id='1550'> +3.1220525e+11 </wgt>
<wgt id='1551'> +3.1017010e+11 </wgt>
<wgt id='1552'> +3.0986392e+11 </wgt>
<wgt id='1553'> +3.1591841e+11 </wgt>
<wgt id='1554'> +3.0996698e+11 </wgt>
<wgt id='1555'> +3.1062568e+11 </wgt>
<wgt id='1556'> +3.1152930e+11 </wgt>
<wgt id='1557'> +3.0931373e+11 </wgt>
<wgt id='1558'> +3.0991678e+11 </wgt>
<wgt id='1559'> +3.0690819e+11 </wgt>
<wgt id='1560'> +3.0868154e+11 </wgt>
<wgt id='1561'> +3.0796751e+11 </wgt>
<wgt id='1562'> +3.0740319e+11 </wgt>
<wgt id='1563'> +3.0989220e+11 </wgt>
<wgt id='1564'> +3.0928518e+11 </wgt>
<wgt id='1565'> +3.1303656e+11 </wgt>
<wgt id='1566'> +3.0954047e+11 </wgt>
<wgt id='1567'> +3.0974623e+11 </wgt>
<wgt id='1568'> +3.0937571e+11 </wgt>
<wgt id='1569'> +3.0883119e+11 </wgt>
<wgt id='1570'> +3.1669161e+11 </wgt>
<wgt id='1571'> +3.0963596e+11 </wgt>
<wgt id='1572'> +3.1088036e+11 </wgt>
<wgt id='1573'> +3.1456424e+11 </wgt>
<wgt id='1574'> +2.5149976e+11 </wgt>
<wgt id='1575'> +2.5156470e+11 </wgt>
<wgt id='1576'> +2.5143063e+11 </wgt>
<wgt id='1577'> +2.5151762e+11 </wgt>
<wgt id='1578'> +2.5207947e+11 </wgt>
<wgt id='1579'> +2.5227044e+11 </wgt>
<wgt id='1580'> +2.5203380e+11 </wgt>
<wgt id='1581'> +2.5108196e+11 </wgt>
<wgt id='1582'> +2.5082707e+11 </wgt>
<wgt id='1583'> +2.5102346e+11 </wgt>
<wgt id='1584'> +2.5206268e+11 </wgt>
<wgt id='1585'> +2.5178071e+11 </wgt>
<wgt id='1586'> +2.5077851e+11 </wgt>
<wgt id='1587'> +2.5089205e+11 </wgt>
<wgt id='1588'> +2.5047012e+11 </wgt>
<wgt id='1589'> +2.5114738e+11 </wgt>
<wgt id='1590'> +2.5135666e+11 </wgt>
<wgt id='1591'> +2.5158284e+11 </wgt>
<wgt id='1592'> +2.5054409e+11 </wgt>
<wgt id='1593'> +2.5033098e+11 </wgt>
<wgt id='1594'> +2.5264847e+11 </wgt>
<wgt id='1595'> +2.4886543e+11 </wgt>
<wgt id='1596'> +2.5597875e+11 </wgt>
<wgt id='1597'> +2.5333461e+11 </wgt>
<wgt id='1598'> +2.5341743e+11 </wgt>
<wgt id='1599'> +2.4838825e+11 </wgt>
<wgt id='1600'> +2.5657768e+11 </wgt>
<wgt id='1601'> +2.5366454e+11 </wgt>
<wgt id='1602'> +2.5158494e+11 </wgt>
<wgt id='1603'> +2.6673483e+11 </wgt>
<wgt id='1604'> +2.5161475e+11 </wgt>
</rwgt>
</event>
<event>
 9      1 +2.8343000e+11 1.40000100e+03 7.81738600e-03 7.88881100e-02
       21 -1    0    0  504  503 +0.0000000000e+00 +0.0000000000e+00 +3.6464645216e+02 3.6464645216e+02 0.0000000000e+00 0.0000e+00 1.0000e+00
       21 -1    0    0  503  504 -0.0000000000e+00 -0.0000000000e+00 -1.3437700167e+03 1.3437700167e+03 0.0000000000e+00 0.0000e+00 1.0000e+00
       45  2    1    2    0    0 +0.0000000000e+00 +0.0000000000e+00 -9.7912356454e+02 1.7084164689e+03 1.4000013844e+03 0.0000e+00 0.0000e+00
       25  2    3    3    0    0 -1.7619375120e+02 +3.8262853493e+02 +1.7770968970e+02 4.7398875587e+02 1.2504308525e+02 0.0000e+00 0.0000e+00
       35  2    3    3    0    0 +1.7619375120e+02 -3.8262853493e+02 -1.1568332542e+03 1.2344277130e+03 8.9998704239e+01 0.0000e+00 0.0000e+00
        5  1    5    5  501    0 +1.5378862279e+02 -2.7542821854e+02 -7.6354031725e+02 8.2614963410e+02 4.2140000000e+00 0.0000e+00 1.0000e+00
       -5  1    5    5    0  501 +2.2405128419e+01 -1.0720031639e+02 -3.9329293699e+02 4.0827807889e+02 4.2140000000e+00 0.0000e+00 1.0000e+00
        5  1    4    4  502    0 -1.5286568112e+02 +2.2145256242e+02 +1.5194590263e+02 3.0905415219e+02 4.2140000000e+00 0.0000e+00 -1.0000e+00
       -5  1    4    4    0  502 -2.3328070083e+01 +1.6117597251e+02 +2.5763787072e+01 1.6493460367e+02 4.2140000000e+00 0.0000e+00 -1.0000e+00
<mgrwt>
<rscale>  0 0.14000014E+04</rscale>
<asrwt>0</asrwt>
<pdfrwt beam="1">  1       21 0.56099454E-01 0.14000014E+04</pdfrwt>
<pdfrwt beam="2">  1       21 0.20673385E+00 0.14000014E+04</pdfrwt>
<totfact> 0.24426921E+02</totfact>
</mgrwt>
<rwgt>
<wgt id='1001'> +2.8343000e+11 </wgt>
<wgt id='1002'> +3.0800819e+11 </wgt>
<wgt id='1003'> +3.0800141e+11 </wgt>
<wgt id='1004'> +3.4876750e+11 </wgt>
<wgt id='1005'> +2.8343000e+11 </wgt>
<wgt id='1006'> +2.8343000e+11 </wgt>
<wgt id='1007'> +3.0800819e+11 </wgt>
<wgt id='1008'> +3.0800141e+11 </wgt>
<wgt id='1009'> +3.4876750e+11 </wgt>
<wgt id='1010'> +2.8343000e+11 </wgt>
<wgt id='1011'> +2.8343000e+11 </wgt>
<wgt id='1012'> +3.0800819e+11 </wgt>
<wgt id='1013'> +3.0800141e+11 </wgt>
<wgt id='1014'> +3.4876750e+11 </wgt>
<wgt id='1015'> +2.8343000e+11 </wgt>
<wgt id='1016'> +2.5360309e+11 </wgt>
<wgt id='1017'> +2.7418114e+11 </wgt>
<wgt id='1018'> +2.7417550e+11 </wgt>
<wgt id='1019'> +3.0800141e+11 </wgt>
<wgt id='1020'> +2.5360309e+11 </wgt>
<wgt id='1021'> +2.5360309e+11 </wgt>
<wgt id='1022'> +2.7418114e+11 </wgt>
<wgt id='1023'> +2.7417550e+11 </wgt>
<wgt id='1024'> +3.0800141e+11 </wgt>
<wgt id='1025'> +2.5360309e+11 </wgt>
<wgt id='1026'> +2.5360309e+11 </wgt>
<wgt id='1027'> +2.7418114e+11 </wgt>
<wgt id='1028'> +2.7417550e+11 </wgt>
<wgt id='1029'> +3.0800141e+11 </wgt>
<wgt id='1030'> +2.5360309e+11 </wgt>
<wgt id='1031'> +3.1912238e+11 </wgt>
<wgt id='1032'> +3.4877570e+11 </wgt>
<wgt id='1033'> +3.4876750e+11 </wgt>
<wgt id='1034'> +3.9850759e+11 </wgt>
<wgt id='1035'> +3.1912238e+11 </wgt>
<wgt id='1036'> +3.1912238e+11 </wgt>
<wgt id='1037'> +3.4877570e+11 </wgt>
<wgt id='1038'> +3.4876750e+11 </wgt>
<wgt id='1039'> +3.9850759e+11 </wgt>
<wgt id='1040'> +3.1912238e+11 </wgt>
<wgt id='1041'> +3.1912238e+11 </wgt>
<wgt id='1042'> +3.4877570e+11 </wgt>
<wgt id='1043'> +3.4876750e+11 </wgt>
<wgt id='1044'> +3.9850759e+11 </wgt>
<wgt id='1045'> +3.1912238e+11 </wgt>
<wgt id='1046'> +2.8343000e+11 </wgt>
<wgt id='1047'> +2.8343000e+11 </wgt>
<wgt id='1048'> +2.8343000e+11 </wgt>
<wgt id='1049'> +2.8299182e+11 </wgt>
<wgt id='1050'> +2.8319186e+11 </wgt>
<wgt id='1051'> +2.8337264e+11 </wgt>
<wgt id='1052'> +2.8418131e+11 </wgt>
<wgt id='1053'> +2.8157798e+11 </wgt>
<wgt id='1054'> +2.8380424e+11 </wgt>
<wgt id='1055'> +2.8212041e+11 </wgt>
<wgt id='1056'> +2.8209072e+11 </wgt>
<wgt id='1057'> +2.8280868e+11 </wgt>
<wgt id='1058'> +2.8261110e+11 </wgt>
<wgt id='1059'> +2.8550062e+11 </wgt>
<wgt id='1060'> +2.8373735e+11 </wgt>
<wgt id='1061'> +2.8397779e+11 </wgt>
<wgt id='1062'> +2.8428999e+11 </wgt>
<wgt id='1063'> +2.8470469e+11 </wgt>
<wgt id='1064'> +2.8407601e+11 </wgt>
<wgt id='1065'> +2.8480571e+11 </wgt>
<wgt id='1066'> +2.8147966e+11 </wgt>
<wgt id='1067'> +2.8236011e+11 </wgt>
<wgt id='1068'> +2.8382420e+11 </wgt>
<wgt id='1069'> +2.8253721e+11 </wgt>
<wgt id='1070'> +2.8408981e+11 </wgt>
<wgt id='1071'> +2.8265331e+11 </wgt>
<wgt id='1072'> +2.8352916e+11 </wgt>
<wgt id='1073'> +2.8242571e+11 </wgt>
<wgt id='1074'> +2.8255162e+11 </wgt>
<wgt id='1075'> +2.8393261e+11 </wgt>
<wgt id='1076'> +2.8164009e+11 </wgt>
<wgt id='1077'> +2.8202395e+11 </wgt>
<wgt id='1078'> +2.8408925e+11 </wgt>
<wgt id='1079'> +2.8223573e+11 </wgt>
<wgt id='1080'> +2.8303755e+11 </wgt>
<wgt id='1081'> +2.8302152e+11 </wgt>
<wgt id='1082'> +2.8231862e+11 </wgt>
<wgt id='1083'> +2.8443847e+11 </wgt>
<wgt id='1084'> +2.8401861e+11 </wgt>
<wgt id='1085'> +2.8267450e+11 </wgt>
<wgt id='1086'> +2.8343739e+11 </wgt>
<wgt id='1087'> +2.8343925e+11 </wgt>
<wgt id='1088'> +2.8293578e+11 </wgt>
<wgt id='1089'> +2.8248609e+11 </wgt>
<wgt id='1090'> +2.8404700e+11 </wgt>
<wgt id='1091'> +2.8360923e+11 </wgt>
<wgt id='1092'> +2.8362304e+11 </wgt>
<wgt id='1093'> +2.8349497e+11 </wgt>
<wgt id='1094'> +2.8225277e+11 </wgt>
<wgt id='1095'> +2.8367062e+11 </wgt>
<wgt id='1096'> +2.8340914e+11 </wgt>
<wgt id='1097'> +2.8283476e+11 </wgt>
<wgt id='1098'> +2.8319418e+11 </wgt>
<wgt id='1099'> +2.8323331e+11 </wgt>
<wgt id='1100'> +2.8403067e+11 </wgt>
<wgt id='1101'> +2.8349167e+11 </wgt>
<wgt id='1102'> +2.8333669e+11 </wgt>
<wgt id='1103'> +2.8271043e+11 </wgt>
<wgt id='1104'> +2.8329832e+11 </wgt>
<wgt id='1105'> +2.8351061e+11 </wgt>
<wgt id='1106'> +2.8379152e+11 </wgt>
<wgt id='1107'> +2.8366051e+11 </wgt>
<wgt id='1108'> +2.8321540e+11 </wgt>
<wgt id='1109'> +2.8328443e+11 </wgt>
<wgt id='1110'> +2.8364302e+11 </wgt>
<wgt id='1111'> +2.8370071e+11 </wgt>
<wgt id='1112'> +2.8333666e+11 </wgt>
<wgt id='1113'> +2.8377778e+11 </wgt>
<wgt id='1114'> +2.8313983e+11 </wgt>
<wgt id='1115'> +2.8296797e+11 </wgt>
<wgt id='1116'> +2.8410792e+11 </wgt>
<wgt id='1117'> +2.8335653e+11 </wgt>
<wgt id='1118'> +2.8375868e+11 </wgt>
<wgt id='1119'> +2.8303014e+11 </wgt>
<wgt id='1120'> +2.8305606e+11 </wgt>
<wgt id='1121'> +2.8349939e+11 </wgt>
<wgt id='1122'> +2.8306450e+11 </wgt>
<wgt id='1123'> +2.8337410e+11 </wgt>
<wgt id='1124'> +2.8348221e+11 </wgt>
<wgt id='1125'> +2.8363215e+11 </wgt>
<wgt id='1126'> +2.8355821e+11 </wgt>
<wgt id='1127'> +2.8328631e+11 </wgt>
<wgt id='1128'> +2.8336993e+11 </wgt>
<wgt id='1129'> +2.8325754e+11 </wgt>
<wgt id='1130'> +2.8345857e+11 </wgt>
<wgt id='1131'> +2.8396113e+11 </wgt>
<wgt id='1132'> +2.8331787e+11 </wgt>
<wgt id='1133'> +2.8357428e+11 </wgt>
<wgt id='1134'> +2.8340428e+11 </wgt>
<wgt id='1135'> +2.8346485e+11 </wgt>
<wgt id='1136'> +2.8331116e+11 </wgt>
<wgt id='1137'> +2.8320479e+11 </wgt>
<wgt id='1138'> +2.8358063e+11 </wgt>
<wgt id='1139'> +2.8353750e+11 </wgt>
<wgt id='1140'> +2.8370733e+11 </wgt>
<wgt id='1141'> +2.8317165e+11 </wgt>
<wgt id='1142'> +2.8348539e+11 </wgt>
<wgt id='1143'> +2.8362871e+11 </wgt>
<wgt id='1144'> +2.8332751e+11 </wgt>
<wgt id='1145'> +2.8359368e+11 </wgt>
<wgt id='1146'> +2.8350266e+11 </wgt>
<wgt id='1147'> +2.8349187e+11 </wgt>
<wgt id='1148'> +2.8343000e+11 </wgt>
<wgt id='1149'> +2.8343000e+11 </wgt>
<wgt id='1150'> +2.9660071e+11 </wgt>
<wgt id='1151'> +2.7641312e+11 </wgt>
<wgt id='1152'> +2.7276595e+11 </wgt>
<wgt id='1153'> +2.8560107e+11 </wgt>
<wgt id='1154'> +2.7967910e+11 </wgt>
<wgt id='1155'> +2.9595606e+11 </wgt>
<wgt id='1156'> +2.7966349e+11 </wgt>
<wgt id='1157'> +2.7559623e+11 </wgt>
<wgt id='1158'> +2.7705348e+11 </wgt>
<wgt id='1159'> +2.9749422e+11 </wgt>
<wgt id='1160'> +2.8557464e+11 </wgt>
<wgt id='1161'> +2.9167050e+11 </wgt>
<wgt id='1162'> +2.8667390e+11 </wgt>
<wgt id='1163'> +2.8709740e+11 </wgt>
<wgt id='1164'> +2.7439147e+11 </wgt>
<wgt id='1165'> +2.7752363e+11 </wgt>
<wgt id='1166'> +2.8329814e+11 </wgt>
<wgt id='1167'> +2.7830311e+11 </wgt>
<wgt id='1168'> +2.7346107e+11 </wgt>
<wgt id='1169'> +2.7629311e+11 </wgt>
<wgt id='1170'> +2.8474200e+11 </wgt>
<wgt id='1171'> +2.7352208e+11 </wgt>
<wgt id='1172'> +2.7343359e+11 </wgt>
<wgt id='1173'> +2.8592988e+11 </wgt>
<wgt id='1174'> +2.7679314e+11 </wgt>
<wgt id='1175'> +2.7902256e+11 </wgt>
<wgt id='1176'> +2.8752525e+11 </wgt>
<wgt id='1177'> +2.7915666e+11 </wgt>
<wgt id='1178'> +2.8539796e+11 </wgt>
<wgt id='1179'> +2.8666516e+11 </wgt>
<wgt id='1180'> +2.7854702e+11 </wgt>
<wgt id='1181'> +2.9432222e+11 </wgt>
<wgt id='1182'> +2.8086463e+11 </wgt>
<wgt id='1183'> +2.8867086e+11 </wgt>
<wgt id='1184'> +2.7682324e+11 </wgt>
<wgt id='1185'> +2.8975297e+11 </wgt>
<wgt id='1186'> +2.7873538e+11 </wgt>
<wgt id='1187'> +2.8523515e+11 </wgt>
<wgt id='1188'> +2.9096042e+11 </wgt>
<wgt id='1189'> +2.8187753e+11 </wgt>
<wgt id='1190'> +2.8018558e+11 </wgt>
<wgt id='1191'> +2.9043055e+11 </wgt>
<wgt id='1192'> +2.8767897e+11 </wgt>
<wgt id='1193'> +2.8904056e+11 </wgt>
<wgt id='1194'> +2.7832771e+11 </wgt>
<wgt id='1195'> +2.8699388e+11 </wgt>
<wgt id='1196'> +2.9094002e+11 </wgt>
<wgt id='1197'> +2.9053314e+11 </wgt>
<wgt id='1198'> +2.8703475e+11 </wgt>
<wgt id='1199'> +2.8711437e+11 </wgt>
<wgt id='1200'> +2.9090433e+11 </wgt>
<wgt id='1201'> +2.8230547e+11 </wgt>
<wgt id='1202'> +2.8498212e+11 </wgt>
<wgt id='1203'> +2.8466971e+11 </wgt>
<wgt id='1204'> +2.8024608e+11 </wgt>
<wgt id='1205'> +2.8498525e+11 </wgt>
<wgt id='1206'> +2.8098990e+11 </wgt>
<wgt id='1207'> +2.9146402e+11 </wgt>
<wgt id='1208'> +2.7107947e+11 </wgt>
<wgt id='1209'> +2.8525885e+11 </wgt>
<wgt id='1210'> +2.8729742e+11 </wgt>
<wgt id='1211'> +2.8104676e+11 </wgt>
<wgt id='1212'> +2.8293427e+11 </wgt>
<wgt id='1213'> +2.8634525e+11 </wgt>
<wgt id='1214'> +2.7924320e+11 </wgt>
<wgt id='1215'> +2.7952399e+11 </wgt>
<wgt id='1216'> +2.7609679e+11 </wgt>
<wgt id='1217'> +2.8081981e+11 </wgt>
<wgt id='1218'> +2.8507915e+11 </wgt>
<wgt id='1219'> +2.9340206e+11 </wgt>
<wgt id='1220'> +2.8092946e+11 </wgt>
<wgt id='1221'> +2.7693198e+11 </wgt>
<wgt id='1222'> +2.7880937e+11 </wgt>
<wgt id='1223'> +2.7398023e+11 </wgt>
<wgt id='1224'> +2.8222939e+11 </wgt>
<wgt id='1225'> +2.8294937e+11 </wgt>
<wgt id='1226'> +2.8533047e+11 </wgt>
<wgt id='1227'> +2.8125003e+11 </wgt>
<wgt id='1228'> +2.8249910e+11 </wgt>
<wgt id='1229'> +2.9974488e+11 </wgt>
<wgt id='1230'> +2.8792585e+11 </wgt>
<wgt id='1231'> +2.7752363e+11 </wgt>
<wgt id='1232'> +2.8792702e+11 </wgt>
<wgt id='1233'> +2.7662776e+11 </wgt>
<wgt id='1234'> +2.7862818e+11 </wgt>
<wgt id='1235'> +3.0036038e+11 </wgt>
<wgt id='1236'> +2.7942200e+11 </wgt>
<wgt id='1237'> +2.9066475e+11 </wgt>
<wgt id='1238'> +2.7968551e+11 </wgt>
<wgt id='1239'> +2.8627351e+11 </wgt>
<wgt id='1240'> +2.7521901e+11 </wgt>
<wgt id='1241'> +2.8894867e+11 </wgt>
<wgt id='1242'> +2.8077213e+11 </wgt>
<wgt id='1243'> +2.8394980e+11 </wgt>
<wgt id='1244'> +2.9100149e+11 </wgt>
<wgt id='1245'> +2.7522815e+11 </wgt>
<wgt id='1246'> +3.0375908e+11 </wgt>
<wgt id='1247'> +2.8138466e+11 </wgt>
<wgt id='1248'> +2.7342847e+11 </wgt>
<wgt id='1249'> +2.7548593e+11 </wgt>
<wgt id='1250'> +2.9430333e+11 </wgt>
<wgt id='1251'> +3.0312915e+11 </wgt>
<wgt id='1252'> +2.8864741e+11 </wgt>
<wgt id='1253'> +2.9474486e+11 </wgt>
<wgt id='1254'> +2.9039553e+11 </wgt>
<wgt id='1255'> +3.0559845e+11 </wgt>
<wgt id='1256'> +3.0519364e+11 </wgt>
<wgt id='1257'> +3.0221082e+11 </wgt>
<wgt id='1258'> +2.9222343e+11 </wgt>
<wgt id='1259'> +3.0770417e+11 </wgt>
<wgt id='1260'> +3.3014904e+11 </wgt>
<wgt id='1261'> +3.1647560e+11 </wgt>
<wgt id='1262'> +2.9594788e+11 </wgt>
<wgt id='1263'> +3.0072012e+11 </wgt>
<wgt id='1264'> +3.0344823e+11 </wgt>
<wgt id='1265'> +2.9278386e+11 </wgt>
<wgt id='1266'> +3.0574949e+11 </wgt>
<wgt id='1267'> +3.5325256e+11 </wgt>
<wgt id='1268'> +2.8856202e+11 </wgt>
<wgt id='1269'> +2.8680818e+11 </wgt>
<wgt id='1270'> +3.0787080e+11 </wgt>
<wgt id='1271'> +2.6525312e+11 </wgt>
<wgt id='1272'> +2.9432407e+11 </wgt>
<wgt id='1273'> +2.9123907e+11 </wgt>
<wgt id='1274'> +2.8752910e+11 </wgt>
<wgt id='1275'> +2.9318392e+11 </wgt>
<wgt id='1276'> +3.0562279e+11 </wgt>
<wgt id='1277'> +3.0097193e+11 </wgt>
<wgt id='1278'> +3.0106908e+11 </wgt>
<wgt id='1279'> +2.7935137e+11 </wgt>
<wgt id='1280'> +2.8611109e+11 </wgt>
<wgt id='1281'> +2.8555321e+11 </wgt>
<wgt id='1282'> +2.9499420e+11 </wgt>
<wgt id='1283'> +3.1408007e+11 </wgt>
<wgt id='1284'> +3.0722811e+11 </wgt>
<wgt id='1285'> +3.0824249e+11 </wgt>
<wgt id='1286'> +3.3245612e+11 </wgt>
<wgt id='1287'> +3.1428806e+11 </wgt>
<wgt id='1288'> +3.3986363e+11 </wgt>
<wgt id='1289'> +3.1687994e+11 </wgt>
<wgt id='1290'> +3.1364338e+11 </wgt>
<wgt id='1291'> +2.7927128e+11 </wgt>
<wgt id='1292'> +3.0498598e+11 </wgt>
<wgt id='1293'> +3.0418067e+11 </wgt>
<wgt id='1294'> +3.2797635e+11 </wgt>
<wgt id='1295'> +3.1189944e+11 </wgt>
<wgt id='1296'> +3.3422494e+11 </wgt>
<wgt id='1297'> +2.8957064e+11 </wgt>
<wgt id='1298'> +2.9012487e+11 </wgt>
<wgt id='1299'> +3.0572434e+11 </wgt>
<wgt id='1300'> +2.8022787e+11 </wgt>
<wgt id='1301'> +2.8011892e+11 </wgt>
<wgt id='1302'> +2.8214759e+11 </wgt>
<wgt id='1303'> +3.0562002e+11 </wgt>
<wgt id='1304'> +3.3112869e+11 </wgt>
<wgt id='1305'> +2.9846519e+11 </wgt>
<wgt id='1306'> +3.0670287e+11 </wgt>
<wgt id='1307'> +2.8519927e+11 </wgt>
<wgt id='1308'> +3.3291124e+11 </wgt>
<wgt id='1309'> +3.0276513e+11 </wgt>
<wgt id='1310'> +3.0456308e+11 </wgt>
<wgt id='1311'> +2.9684489e+11 </wgt>
<wgt id='1312'> +3.1906607e+11 </wgt>
<wgt id='1313'> +3.0636764e+11 </wgt>
<wgt id='1314'> +2.9196240e+11 </wgt>
<wgt id='1315'> +2.8838975e+11 </wgt>
<wgt id='1316'> +3.0034198e+11 </wgt>
<wgt id='1317'> +3.1635915e+11 </wgt>
<wgt id='1318'> +2.9208581e+11 </wgt>
<wgt id='1319'> +2.9730431e+11 </wgt>
<wgt id='1320'> +3.1971329e+11 </wgt>
<wgt id='1321'> +3.0509278e+11 </wgt>
<wgt id='1322'> +3.1573661e+11 </wgt>
<wgt id='1323'> +2.8689859e+11 </wgt>
<wgt id='1324'> +3.1124764e+11 </wgt>
<wgt id='1325'> +3.1400796e+11 </wgt>
<wgt id='1326'> +3.1089226e+11 </wgt>
<wgt id='1327'> +3.1694227e+11 </wgt>
<wgt id='1328'> +2.9928906e+11 </wgt>
<wgt id='1329'> +2.9800716e+11 </wgt>
<wgt id='1330'> +2.8413113e+11 </wgt>
<wgt id='1331'> +3.2473931e+11 </wgt>
<wgt id='1332'> +3.0085124e+11 </wgt>
<wgt id='1333'> +3.0276841e+11 </wgt>
<wgt id='1334'> +3.2059982e+11 </wgt>
<wgt id='1335'> +2.9184275e+11 </wgt>
<wgt id='1336'> +3.2034224e+11 </wgt>
<wgt id='1337'> +3.1009940e+11 </wgt>
<wgt id='1338'> +2.8681927e+11 </wgt>
<wgt id='1339'> +3.1335238e+11 </wgt>
<wgt id='1340'> +3.1310694e+11 </wgt>
<wgt id='1341'> +3.3031332e+11 </wgt>
<wgt id='1342'> +3.0029993e+11 </wgt>
<wgt id='1343'> +3.0940785e+11 </wgt>
<wgt id='1344'> +3.2012132e+11 </wgt>
<wgt id='1345'> +2.5968914e+11 </wgt>
<wgt id='1346'> +3.0583769e+11 </wgt>
<wgt id='1347'> +2.9517745e+11 </wgt>
<wgt id='1348'> +2.9153873e+11 </wgt>
<wgt id='1349'> +2.8880510e+11 </wgt>
<wgt id='1350'> +3.1328516e+11 </wgt>
<wgt id='1351'> +2.9057625e+11 </wgt>
<wgt id='1352'> +3.0531534e+11 </wgt>
<wgt id='1353'> +3.0271997e+11 </wgt>
<wgt id='1354'> +3.1167352e+11 </wgt>
<wgt id='1355'> +2.7983553e+11 </wgt>
<wgt id='1356'> +2.8238172e+11 </wgt>
<wgt id='1357'> +2.8050161e+11 </wgt>
<wgt id='1358'> +2.7842062e+11 </wgt>
<wgt id='1359'> +2.7863889e+11 </wgt>
<wgt id='1360'> +2.7523118e+11 </wgt>
<wgt id='1361'> +2.7834306e+11 </wgt>
<wgt id='1362'> +2.8805584e+11 </wgt>
<wgt id='1363'> +2.7866948e+11 </wgt>
<wgt id='1364'> +2.8556617e+11 </wgt>
<wgt id='1365'> +2.7775469e+11 </wgt>
<wgt id='1366'> +2.7593937e+11 </wgt>
<wgt id='1367'> +2.7892965e+11 </wgt>
<wgt id='1368'> +2.8068835e+11 </wgt>
<wgt id='1369'> +2.8320602e+11 </wgt>
<wgt id='1370'> +2.7586992e+11 </wgt>
<wgt id='1371'> +2.8001205e+11 </wgt>
<wgt id='1372'> +2.8010312e+11 </wgt>
<wgt id='1373'> +2.8330206e+11 </wgt>
<wgt id='1374'> +2.7357919e+11 </wgt>
<wgt id='1375'> +2.8141669e+11 </wgt>
<wgt id='1376'> +2.7884751e+11 </wgt>
<wgt id='1377'> +2.8016605e+11 </wgt>
<wgt id='1378'> +2.8085296e+11 </wgt>
<wgt id='1379'> +2.7819518e+11 </wgt>
<wgt id='1380'> +2.7725888e+11 </wgt>
<wgt id='1381'> +2.8404633e+11 </wgt>
<wgt id='1382'> +2.7827966e+11 </wgt>
<wgt id='1383'> +2.7686447e+11 </wgt>
<wgt id='1384'> +2.7501626e+11 </wgt>
<wgt id='1385'> +2.7458396e+11 </wgt>
<wgt id='1386'> +2.7727426e+11 </wgt>
<wgt id='1387'> +2.7798654e+11 </wgt>
<wgt id='1388'> +2.7523898e+11 </wgt>
<wgt id='1389'> +2.7828380e+11 </wgt>
<wgt id='1390'> +2.8262687e+11 </wgt>
<wgt id='1391'> +2.7924858e+11 </wgt>
<wgt id='1392'> +2.7553821e+11 </wgt>
<wgt id='1393'> +2.8142595e+11 </wgt>
<wgt id='1394'> +2.7923213e+11 </wgt>
<wgt id='1395'> +2.7459362e+11 </wgt>
<wgt id='1396'> +2.8014076e+11 </wgt>
<wgt id='1397'> +2.8033036e+11 </wgt>
<wgt id='1398'> +2.8395168e+11 </wgt>
<wgt id='1399'> +2.7799328e+11 </wgt>
<wgt id='1400'> +2.7441933e+11 </wgt>
<wgt id='1401'> +2.8073856e+11 </wgt>
<wgt id='1402'> +2.8218520e+11 </wgt>
<wgt id='1403'> +2.8901254e+11 </wgt>
<wgt id='1404'> +2.8352568e+11 </wgt>
<wgt id='1405'> +2.8730935e+11 </wgt>
<wgt id='1406'> +2.8335886e+11 </wgt>
<wgt id='1407'> +2.8075039e+11 </wgt>
<wgt id='1408'> +2.8730430e+11 </wgt>
<wgt id='1409'> +2.7466430e+11 </wgt>
<wgt id='1410'> +2.7200041e+11 </wgt>
<wgt id='1411'> +2.7956018e+11 </wgt>
<wgt id='1412'> +2.7905591e+11 </wgt>
<wgt id='1413'> +2.8248203e+11 </wgt>
<wgt id='1414'> +2.8238190e+11 </wgt>
<wgt id='1415'> +2.7935073e+11 </wgt>
<wgt id='1416'> +2.8095436e+11 </wgt>
<wgt id='1417'> +2.7758774e+11 </wgt>
<wgt id='1418'> +2.7875149e+11 </wgt>
<wgt id='1419'> +2.8319247e+11 </wgt>
<wgt id='1420'> +2.7481679e+11 </wgt>
<wgt id='1421'> +2.8659446e+11 </wgt>
<wgt id='1422'> +2.7270468e+11 </wgt>
<wgt id='1423'> +2.8371833e+11 </wgt>
<wgt id='1424'> +2.8021339e+11 </wgt>
<wgt id='1425'> +2.8021070e+11 </wgt>
<wgt id='1426'> +2.8208622e+11 </wgt>
<wgt id='1427'> +2.7830679e+11 </wgt>
<wgt id='1428'> +2.7808629e+11 </wgt>
<wgt id='1429'> +2.8073957e+11 </wgt>
<wgt id='1430'> +2.7645997e+11 </wgt>
<wgt id='1431'> +2.7619761e+11 </wgt>
<wgt id='1432'> +2.7636554e+11 </wgt>
<wgt id='1433'> +2.7520914e+11 </wgt>
<wgt id='1434'> +2.8684035e+11 </wgt>
<wgt id='1435'> +2.7913008e+11 </wgt>
<wgt id='1436'> +2.8377933e+11 </wgt>
<wgt id='1437'> +2.7842052e+11 </wgt>
<wgt id='1438'> +2.7958984e+11 </wgt>
<wgt id='1439'> +2.8634169e+11 </wgt>
<wgt id='1440'> +2.8071424e+11 </wgt>
<wgt id='1441'> +2.7589658e+11 </wgt>
<wgt id='1442'> +2.8264081e+11 </wgt>
<wgt id='1443'> +2.7625602e+11 </wgt>
<wgt id='1444'> +2.8552043e+11 </wgt>
<wgt id='1445'> +2.7909138e+11 </wgt>
<wgt id='1446'> +2.8801825e+11 </wgt>
<wgt id='1447'> +2.7933260e+11 </wgt>
<wgt id='1448'> +2.8246159e+11 </wgt>
<wgt id='1449'> +2.8294693e+11 </wgt>
<wgt id='1450'> +2.7918684e+11 </wgt>
<wgt id='1451'> +2.8015041e+11 </wgt>
<wgt id='1452'> +2.8194947e+11 </wgt>
<wgt id='1453'> +2.8113000e+11 </wgt>
<wgt id='1454'> +2.7107537e+11 </wgt>
<wgt id='1455'> +2.7827631e+11 </wgt>
<wgt id='1456'> +2.7831306e+11 </wgt>
<wgt id='1457'> +2.7943908e+11 </wgt>
<wgt id='1458'> +2.8620671e+11 </wgt>
<wgt id='1459'> +3.1223978e+11 </wgt>
<wgt id='1460'> +3.0703309e+11 </wgt>
<wgt id='1461'> +3.6645498e+11 </wgt>
<wgt id='1462'> +3.0111378e+11 </wgt>
<wgt id='1463'> +3.0133509e+11 </wgt>
<wgt id='1464'> +3.0082993e+11 </wgt>
<wgt id='1465'> +3.0118120e+11 </wgt>
<wgt id='1466'> +3.0105220e+11 </wgt>
<wgt id='1467'> +3.0122885e+11 </wgt>
<wgt id='1468'> +3.0092495e+11 </wgt>
<wgt id='1469'> +3.0068185e+11 </wgt>
<wgt id='1470'> +3.0146456e+11 </wgt>
<wgt id='1471'> +3.0156285e+11 </wgt>
<wgt id='1472'> +3.0065122e+11 </wgt>
<wgt id='1473'> +3.0231129e+11 </wgt>
<wgt id='1474'> +2.9996355e+11 </wgt>
<wgt id='1475'> +3.0224802e+11 </wgt>
<wgt id='1476'> +3.0030976e+11 </wgt>
<wgt id='1477'> +3.0056671e+11 </wgt>
<wgt id='1478'> +3.0239197e+11 </wgt>
<wgt id='1479'> +3.0077857e+11 </wgt>
<wgt id='1480'> +3.0135248e+11 </wgt>
<wgt id='1481'> +3.0056242e+11 </wgt>
<wgt id='1482'> +3.0185961e+11 </wgt>
<wgt id='1483'> +3.0117451e+11 </wgt>
<wgt id='1484'> +3.0103108e+11 </wgt>
<wgt id='1485'> +3.0132411e+11 </wgt>
<wgt id='1486'> +3.0060717e+11 </wgt>
<wgt id='1487'> +3.0139829e+11 </wgt>
<wgt id='1488'> +3.0075864e+11 </wgt>
<wgt id='1489'> +3.0073880e+11 </wgt>
<wgt id='1490'> +3.0213075e+11 </wgt>
<wgt id='1491'> +3.0614690e+11 </wgt>
<wgt id='1492'> +2.9830956e+11 </wgt>
<wgt id='1493'> +2.9744748e+11 </wgt>
<wgt id='1494'> +3.1261342e+11 </wgt>
<wgt id='1495'> +3.0029262e+11 </wgt>
<wgt id='1496'> +3.0199564e+11 </wgt>
<wgt id='1497'> +3.0132283e+11 </wgt>
<wgt id='1498'> +3.0082830e+11 </wgt>
<wgt id='1499'> +3.0319594e+11 </wgt>
<wgt id='1500'> +2.9997688e+11 </wgt>
<wgt id='1501'> +3.0146969e+11 </wgt>
<wgt id='1502'> +3.0017686e+11 </wgt>
<wgt id='1503'> +2.9694713e+11 </wgt>
<wgt id='1504'> +3.0575383e+11 </wgt>
<wgt id='1505'> +3.0182376e+11 </wgt>
<wgt id='1506'> +3.0041392e+11 </wgt>
<wgt id='1507'> +3.0425828e+11 </wgt>
<wgt id='1508'> +2.9626375e+11 </wgt>
<wgt id='1509'> +3.0188208e+11 </wgt>
<wgt id='1510'> +2.9780209e+11 </wgt>
<wgt id='1511'> +3.0233999e+11 </wgt>
<wgt id='1512'> +3.0074557e+11 </wgt>
<wgt id='1513'> +3.0095080e+11 </wgt>
<wgt id='1514'> +3.0130751e+11 </wgt>
<wgt id='1515'> +3.0474825e+11 </wgt>
<wgt id='1516'> +3.0077070e+11 </wgt>
<wgt id='1517'> +3.0060026e+11 </wgt>
<wgt id='1518'> +3.0179585e+11 </wgt>
<wgt id='1519'> +2.9915076e+11 </wgt>
<wgt id='1520'> +3.0250470e+11 </wgt>
<wgt id='1521'> +2.9992173e+11 </wgt>
<wgt id='1522'> +3.0178847e+11 </wgt>
<wgt id='1523'> +3.0230787e+11 </wgt>
<wgt id='1524'> +3.0275752e+11 </wgt>
<wgt id='1525'> +3.0188064e+11 </wgt>
<wgt id='1526'> +3.0253611e+11 </wgt>
<wgt id='1527'> +3.0111378e+11 </wgt>
<wgt id='1528'> +3.0008035e+11 </wgt>
<wgt id='1529'> +3.0183946e+11 </wgt>
<wgt id='1530'> +2.9702910e+11 </wgt>
<wgt id='1531'> +3.0369231e+11 </wgt>
<wgt id='1532'> +3.0293667e+11 </wgt>
<wgt id='1533'> +2.9824037e+11 </wgt>
<wgt id='1534'> +3.0206791e+11 </wgt>
<wgt id='1535'> +3.0687662e+11 </wgt>
<wgt id='1536'> +3.0048704e+11 </wgt>
<wgt id='1537'> +3.0516685e+11 </wgt>
<wgt id='1538'> +2.9978184e+11 </wgt>
<wgt id='1539'> +3.0887932e+11 </wgt>
<wgt id='1540'> +3.0467472e+11 </wgt>
<wgt id='1541'> +3.0524758e+11 </wgt>
<wgt id='1542'> +3.0381585e+11 </wgt>
<wgt id='1543'> +3.0544543e+11 </wgt>
<wgt id='1544'> +3.0201427e+11 </wgt>
<wgt id='1545'> +3.0166471e+11 </wgt>
<wgt id='1546'> +2.9988636e+11 </wgt>
<wgt id='1547'> +3.0598931e+11 </wgt>
<wgt id='1548'> +3.0241121e+11 </wgt>
<wgt id='1549'> +3.0016358e+11 </wgt>
<wgt id='1550'> +3.0570480e+11 </wgt>
<wgt id='1551'> +3.0430596e+11 </wgt>
<wgt id='1552'> +3.0373985e+11 </wgt>
<wgt id='1553'> +3.0817977e+11 </wgt>
<wgt id='1554'> +3.0388141e+11 </wgt>
<wgt id='1555'> +3.0465783e+11 </wgt>
<wgt id='1556'> +3.0576490e+11 </wgt>
<wgt id='1557'> +3.0328981e+11 </wgt>
<wgt id='1558'> +3.0404116e+11 </wgt>
<wgt id='1559'> +3.0107625e+11 </wgt>
<wgt id='1560'> +3.0255812e+11 </wgt>
<wgt id='1561'> +3.0152783e+11 </wgt>
<wgt id='1562'> +3.0196968e+11 </wgt>
<wgt id='1563'> +3.0394723e+11 </wgt>
<wgt id='1564'> +3.0339529e+11 </wgt>
<wgt id='1565'> +3.0652379e+11 </wgt>
<wgt id='1566'> +3.0370194e+11 </wgt>
<wgt id='1567'> +3.0525044e+11 </wgt>
<wgt id='1568'> +3.0354879e+11 </wgt>
<wgt id='1569'> +3.0308960e+11 </wgt>
<wgt id='1570'> +3.1017701e+11 </wgt>
<wgt id='1571'> +3.0375892e+11 </wgt>
<wgt id='1572'> +3.0548957e+11 </wgt>
<wgt id='1573'> +3.0785567e+11 </wgt>
<wgt id='1574'> +2.5524970e+11 </wgt>
<wgt id='1575'> +2.5531678e+11 </wgt>
<wgt id='1576'> +2.5518121e+11 </wgt>
<wgt id='1577'> +2.5526768e+11 </wgt>
<wgt id='1578'> +2.5583813e+11 </wgt>
<wgt id='1579'> +2.5604805e+11 </wgt>
<wgt id='1580'> +2.5581431e+11 </wgt>
<wgt id='1581'> +2.5476705e+11 </wgt>
<wgt id='1582'> +2.5449734e+11 </wgt>
<wgt id='1583'> +2.5478819e+11 </wgt>
<wgt id='1584'> +2.5581492e+11 </wgt>
<wgt id='1585'> +2.5549640e+11 </wgt>
<wgt id='1586'> +2.5443795e+11 </wgt>
<wgt id='1587'> +2.5459232e+11 </wgt>
<wgt id='1588'> +2.5414770e+11 </wgt>
<wgt id='1589'> +2.5493127e+11 </wgt>
<wgt id='1590'> +2.5509749e+11 </wgt>
<wgt id='1591'> +2.5532995e+11 </wgt>
<wgt id='1592'> +2.5426966e+11 </wgt>
<wgt id='1593'> +2.5416722e+11 </wgt>
<wgt id='1594'> +2.5629984e+11 </wgt>
<wgt id='1595'> +2.5272607e+11 </wgt>
<wgt id='1596'> +2.5947662e+11 </wgt>
<wgt id='1597'> +2.5706609e+11 </wgt>
<wgt id='1598'> +2.5719339e+11 </wgt>
<wgt id='1599'> +2.5224110e+11 </wgt>
<wgt id='1600'> +2.6014804e+11 </wgt>
<wgt id='1601'> +2.5740895e+11 </wgt>
<wgt id='1602'> +2.5530379e+11 </wgt>
<wgt id='1603'> +2.6909189e+11 </wgt>
<wgt id='1604'> +2.5541746e+11 </wgt>
</rwgt>
</event>
<event>
 9      1 +2.8343000e+11 1.40000000e+03 7.81738600e-03 7.88881200e-02
       21 -1    0    0  504  503 +0.0000000000e+00 +0.0000000000e+00 +7.3013757680e+02 7.3013757680e+02 0.0000000000e+00 0.0000e+00 -1.0000e+00
       21 -1    0    0  503  504 -0.0000000000e+00 -0.0000000000e+00 -6.7110591995e+02 6.7110591995e+02 0.0000000000e+00 0.0000e+00 -1.0000e+00
       45  2    1    2    0    0 -1.4210854715e-14 +0.0000000000e+00 +5.9031656853e+01 1.4012434968e+03 1.3999995002e+03 0.0000e+00 0.0000e+00
       25  2    3    3    0    0 +5.8185525278e+01 -6.0717269119e+02 +3.5564892601e+02 7.1704661455e+02 1.2500182630e+02 0.0000e+00 0.0000e+00
       35  2    3    3    0    0 -5.8185525278e+01 +6.0717269119e+02 -2.9661726916e+02 6.8419688220e+02 8.9996316415e+01 0.0000e+00 0.0000e+00
        5  1    5    5  501    0 +4.9344965328e+00 +3.9258782663e+02 -1.8052826742e+02 4.3215479172e+02 4.2140000000e+00 0.0000e+00 1.0000e+00
       -5  1    5    5    0  501 -6.3120021810e+01 +2.1458486457e+02 -1.1608900174e+02 2.5204209048e+02 4.2140000000e+00 0.0000e+00 1.0000e+00
        5  1    4    4  502    0 +6.2423173430e+01 -6.1185024825e+02 +3.5147799790e+02 7.0838684324e+02 4.2140000000e+00 0.0000e+00 1.0000e+00
       -5  1    4    4    0  502 -4.2376481526e+00 +4.6775570569e+00 +4.1709281112e+00 8.6597713131e+00 4.2140000000e+00 0.0000e+00 1.0000e+00
<mgrwt>
<rscale>  0 0.13999995E+04</rscale>
<asrwt>0</asrwt>
<pdfrwt beam="1">  1       21 0.11232886E+00 0.13999995E+04</pdfrwt>
<pdfrwt beam="2">  1       21 0.10324706E+00 0.13999995E+04</pdfrwt>
<totfact> 0.35828564E+02</totfact>
</mgrwt>
<rwgt>
<wgt id='1001'> +2.8343000e+11 </wgt>
<wgt id='1002'> +2.8901627e+11 </wgt>
<wgt id='1003'> +2.8900205e+11 </wgt>
<wgt id='1004'> +3.2436070e+11 </wgt>
<wgt id='1005'> +2.8343000e+11 </wgt>
<wgt id='1006'> +2.8343000e+11 </wgt>
<wgt id='1007'> +2.8901627e+11 </wgt>
<wgt id='1008'> +2.8900205e+11 </wgt>
<wgt id='1009'> +3.2436070e+11 </wgt>
<wgt id='1010'> +2.8343000e+11 </wgt>
<wgt id='1011'> +2.8343000e+11 </wgt>
<wgt id='1012'> +2.8901627e+11 </wgt>
<wgt id='1013'> +2.8900205e+11 </wgt>
<wgt id='1014'> +3.2436070e+11 </wgt>
<wgt id='1015'> +2.8343000e+11 </wgt>
<wgt id='1016'> +2.5469717e+11 </wgt>
<wgt id='1017'> +2.5942831e+11 </wgt>
<wgt id='1018'> +2.5941628e+11 </wgt>
<wgt id='1019'> +2.8900205e+11 </wgt>
<wgt id='1020'> +2.5469717e+11 </wgt>
<wgt id='1021'> +2.5469717e+11 </wgt>
<wgt id='1022'> +2.5942831e+11 </wgt>
<wgt id='1023'> +2.5941628e+11 </wgt>
<wgt id='1024'> +2.8900205e+11 </wgt>
<wgt id='1025'> +2.5469717e+11 </wgt>
<wgt id='1026'> +2.5469717e+11 </wgt>
<wgt id='1027'> +2.5942831e+11 </wgt>
<wgt id='1028'> +2.5941628e+11 </wgt>
<wgt id='1029'> +2.8900205e+11 </wgt>
<wgt id='1030'> +2.5469717e+11 </wgt>
<wgt id='1031'> +3.1766954e+11 </wgt>
<wgt id='1032'> +3.2437779e+11 </wgt>
<wgt id='1033'> +3.2436070e+11 </wgt>
<wgt id='1034'> +3.6693542e+11 </wgt>
<wgt id='1035'> +3.1766954e+11 </wgt>
<wgt id='1036'> +3.1766954e+11 </wgt>
<wgt id='1037'> +3.2437779e+11 </wgt>
<wgt id='1038'> +3.2436070e+11 </wgt>
<wgt id='1039'> +3.6693542e+11 </wgt>
<wgt id='1040'> +3.1766954e+11 </wgt>
<wgt id='1041'> +3.1766954e+11 </wgt>
<wgt id='1042'> +3.2437779e+11 </wgt>
<wgt id='1043'> +3.2436070e+11 </wgt>
<wgt id='1044'> +3.6693542e+11 </wgt>
<wgt id='1045'> +3.1766954e+11 </wgt>
<wgt id='1046'> +2.8343000e+11 </wgt>
<wgt id='1047'> +2.8343000e+11 </wgt>
<wgt id='1048'> +2.8343000e+11 </wgt>
<wgt id='1049'> +2.8226067e+11 </wgt>
<wgt id='1050'> +2.8304558e+11 </wgt>
<wgt id='1051'> +2.8376487e+11 </wgt>
<wgt id='1052'> +2.8419775e+11 </wgt>
<wgt id='1053'> +2.8189439e+11 </wgt>
<wgt id='1054'> +2.8388460e+11 </wgt>
<wgt id='1055'> +2.8224821e+11 </wgt>
<wgt id='1056'> +2.8180014e+11 </wgt>
<wgt id='1057'> +2.8422276e+11 </wgt>
<wgt id='1058'> +2.8305767e+11 </wgt>
<wgt id='1059'> +2.8541366e+11 </wgt>
<wgt id='1060'> +2.8366143e+11 </wgt>
<wgt id='1061'> +2.8421352e+11 </wgt>
<wgt id='1062'> +2.8400660e+11 </wgt>
<wgt id='1063'> +2.8364257e+11 </wgt>
<wgt id='1064'> +2.8470471e+11 </wgt>
<wgt id='1065'> +2.8487799e+11 </wgt>
<wgt id='1066'> +2.8201150e+11 </wgt>
<wgt id='1067'> +2.7966304e+11 </wgt>
<wgt id='1068'> +2.8382320e+11 </wgt>
<wgt id='1069'> +2.8279581e+11 </wgt>
<wgt id='1070'> +2.8341001e+11 </wgt>
<wgt id='1071'> +2.8493879e+11 </wgt>
<wgt id='1072'> +2.8111239e+11 </wgt>
<wgt id='1073'> +2.8412252e+11 </wgt>
<wgt id='1074'> +2.8302807e+11 </wgt>
<wgt id='1075'> +2.8440456e+11 </wgt>
<wgt id='1076'> +2.8327935e+11 </wgt>
<wgt id='1077'> +2.8298629e+11 </wgt>
<wgt id='1078'> +2.8409769e+11 </wgt>
<wgt id='1079'> +2.8177193e+11 </wgt>
<wgt id='1080'> +2.8276442e+11 </wgt>
<wgt id='1081'> +2.8302815e+11 </wgt>
<wgt id='1082'> +2.8203956e+11 </wgt>
<wgt id='1083'> +2.8399974e+11 </wgt>
<wgt id='1084'> +2.8407037e+11 </wgt>
<wgt id='1085'> +2.8285843e+11 </wgt>
<wgt id='1086'> +2.8279067e+11 </wgt>
<wgt id='1087'> +2.8307981e+11 </wgt>
<wgt id='1088'> +2.8293593e+11 </wgt>
<wgt id='1089'> +2.8279689e+11 </wgt>
<wgt id='1090'> +2.8413267e+11 </wgt>
<wgt id='1091'> +2.8348205e+11 </wgt>
<wgt id='1092'> +2.8370908e+11 </wgt>
<wgt id='1093'> +2.8332910e+11 </wgt>
<wgt id='1094'> +2.8291762e+11 </wgt>
<wgt id='1095'> +2.8354499e+11 </wgt>
<wgt id='1096'> +2.8339230e+11 </wgt>
<wgt id='1097'> +2.8303916e+11 </wgt>
<wgt id='1098'> +2.8307684e+11 </wgt>
<wgt id='1099'> +2.8323802e+11 </wgt>
<wgt id='1100'> +2.8402209e+11 </wgt>
<wgt id='1101'> +2.8341409e+11 </wgt>
<wgt id='1102'> +2.8328878e+11 </wgt>
<wgt id='1103'> +2.8310081e+11 </wgt>
<wgt id='1104'> +2.8310272e+11 </wgt>
<wgt id='1105'> +2.8353480e+11 </wgt>
<wgt id='1106'> +2.8377063e+11 </wgt>
<wgt id='1107'> +2.8334536e+11 </wgt>
<wgt id='1108'> +2.8333523e+11 </wgt>
<wgt id='1109'> +2.8324399e+11 </wgt>
<wgt id='1110'> +2.8376114e+11 </wgt>
<wgt id='1111'> +2.8356132e+11 </wgt>
<wgt id='1112'> +2.8339582e+11 </wgt>
<wgt id='1113'> +2.8373655e+11 </wgt>
<wgt id='1114'> +2.8311022e+11 </wgt>
<wgt id='1115'> +2.8326190e+11 </wgt>
<wgt id='1116'> +2.8373010e+11 </wgt>
<wgt id='1117'> +2.8337543e+11 </wgt>
<wgt id='1118'> +2.8353493e+11 </wgt>
<wgt id='1119'> +2.8325570e+11 </wgt>
<wgt id='1120'> +2.8328925e+11 </wgt>
<wgt id='1121'> +2.8350269e+11 </wgt>
<wgt id='1122'> +2.8322663e+11 </wgt>
<wgt id='1123'> +2.8337179e+11 </wgt>
<wgt id='1124'> +2.8333041e+11 </wgt>
<wgt id='1125'> +2.8359097e+11 </wgt>
<wgt id='1126'> +2.8353535e+11 </wgt>
<wgt id='1127'> +2.8332188e+11 </wgt>
<wgt id='1128'> +2.8347552e+11 </wgt>
<wgt id='1129'> +2.8339471e+11 </wgt>
<wgt id='1130'> +2.8346783e+11 </wgt>
<wgt id='1131'> +2.8369209e+11 </wgt>
<wgt id='1132'> +2.8335361e+11 </wgt>
<wgt id='1133'> +2.8350606e+11 </wgt>
<wgt id='1134'> +2.8341161e+11 </wgt>
<wgt id='1135'> +2.8346737e+11 </wgt>
<wgt id='1136'> +2.8340254e+11 </wgt>
<wgt id='1137'> +2.8329063e+11 </wgt>
<wgt id='1138'> +2.8354173e+11 </wgt>
<wgt id='1139'> +2.8346799e+11 </wgt>
<wgt id='1140'> +2.8364345e+11 </wgt>
<wgt id='1141'> +2.8330781e+11 </wgt>
<wgt id='1142'> +2.8349855e+11 </wgt>
<wgt id='1143'> +2.8359161e+11 </wgt>
<wgt id='1144'> +2.8334606e+11 </wgt>
<wgt id='1145'> +2.8355237e+11 </wgt>
<wgt id='1146'> +2.8340899e+11 </wgt>
<wgt id='1147'> +2.8347224e+11 </wgt>
<wgt id='1148'> +2.8343000e+11 </wgt>
<wgt id='1149'> +2.8343000e+11 </wgt>
<wgt id='1150'> +2.9088667e+11 </wgt>
<wgt id='1151'> +2.8131442e+11 </wgt>
<wgt id='1152'> +2.8572432e+11 </wgt>
<wgt id='1153'> +2.8777462e+11 </wgt>
<wgt id='1154'> +2.8756171e+11 </wgt>
<wgt id='1155'> +2.8830636e+11 </wgt>
<wgt id='1156'> +2.7649911e+11 </wgt>
<wgt id='1157'> +2.7675859e+11 </wgt>
<wgt id='1158'> +2.7767231e+11 </wgt>
<wgt id='1159'> +2.9608893e+11 </wgt>
<wgt id='1160'> +2.8149321e+11 </wgt>
<wgt id='1161'> +2.8556406e+11 </wgt>
<wgt id='1162'> +2.7595796e+11 </wgt>
<wgt id='1163'> +2.8689953e+11 </wgt>
<wgt id='1164'> +2.6755168e+11 </wgt>
<wgt id='1165'> +2.7944353e+11 </wgt>
<wgt id='1166'> +2.8510684e+11 </wgt>
<wgt id='1167'> +2.8001909e+11 </wgt>
<wgt id='1168'> +2.7661243e+11 </wgt>
<wgt id='1169'> +2.7599754e+11 </wgt>
<wgt id='1170'> +2.7572705e+11 </wgt>
<wgt id='1171'> +2.7351562e+11 </wgt>
<wgt id='1172'> +2.7763635e+11 </wgt>
<wgt id='1173'> +2.8810462e+11 </wgt>
<wgt id='1174'> +2.7977320e+11 </wgt>
<wgt id='1175'> +2.7513985e+11 </wgt>
<wgt id='1176'> +2.8639449e+11 </wgt>
<wgt id='1177'> +2.7933440e+11 </wgt>
<wgt id='1178'> +2.8317688e+11 </wgt>
<wgt id='1179'> +2.8023814e+11 </wgt>
<wgt id='1180'> +2.8340321e+11 </wgt>
<wgt id='1181'> +2.7590481e+11 </wgt>
<wgt id='1182'> +2.8172501e+11 </wgt>
<wgt id='1183'> +2.9592502e+11 </wgt>
<wgt id='1184'> +2.7570750e+11 </wgt>
<wgt id='1185'> +2.8018322e+11 </wgt>
<wgt id='1186'> +2.7148606e+11 </wgt>
<wgt id='1187'> +2.8581578e+11 </wgt>
<wgt id='1188'> +2.7651170e+11 </wgt>
<wgt id='1189'> +2.8573810e+11 </wgt>
<wgt id='1190'> +2.8433997e+11 </wgt>
<wgt id='1191'> +2.9536322e+11 </wgt>
<wgt id='1192'> +2.9195177e+11 </wgt>
<wgt id='1193'> +2.9551005e+11 </wgt>
<wgt id='1194'> +2.8475281e+11 </wgt>
<wgt id='1195'> +2.8379955e+11 </wgt>
<wgt id='1196'> +2.9240336e+11 </wgt>
<wgt id='1197'> +2.9418503e+11 </wgt>
<wgt id='1198'> +2.7504755e+11 </wgt>
<wgt id='1199'> +2.8169232e+11 </wgt>
<wgt id='1200'> +2.8216899e+11 </wgt>
<wgt id='1201'> +2.7934001e+11 </wgt>
<wgt id='1202'> +2.8873249e+11 </wgt>
<wgt id='1203'> +2.7753884e+11 </wgt>
<wgt id='1204'> +2.8850985e+11 </wgt>
<wgt id='1205'> +2.8519968e+11 </wgt>
<wgt id='1206'> +2.7640238e+11 </wgt>
<wgt id='1207'> +2.9323187e+11 </wgt>
<wgt id='1208'> +2.7295333e+11 </wgt>
<wgt id='1209'> +2.7851976e+11 </wgt>
<wgt id='1210'> +2.8023501e+11 </wgt>
<wgt id='1211'> +2.8572186e+11 </wgt>
<wgt id='1212'> +2.8372056e+11 </wgt>
<wgt id='1213'> +2.9357473e+11 </wgt>
<wgt id='1214'> +2.7570511e+11 </wgt>
<wgt id='1215'> +2.9221153e+11 </wgt>
<wgt id='1216'> +2.8610748e+11 </wgt>
<wgt id='1217'> +2.7590936e+11 </wgt>
<wgt id='1218'> +2.8481023e+11 </wgt>
<wgt id='1219'> +2.9446176e+11 </wgt>
<wgt id='1220'> +2.7701656e+11 </wgt>
<wgt id='1221'> +2.7499498e+11 </wgt>
<wgt id='1222'> +2.8048409e+11 </wgt>
<wgt id='1223'> +2.7259565e+11 </wgt>
<wgt id='1224'> +2.8354290e+11 </wgt>
<wgt id='1225'> +2.8807715e+11 </wgt>
<wgt id='1226'> +2.9081460e+11 </wgt>
<wgt id='1227'> +2.7280430e+11 </wgt>
<wgt id='1228'> +2.8136696e+11 </wgt>
<wgt id='1229'> +3.0287576e+11 </wgt>
<wgt id='1230'> +2.9431139e+11 </wgt>
<wgt id='1231'> +2.7944353e+11 </wgt>
<wgt id='1232'> +2.8922548e+11 </wgt>
<wgt id='1233'> +2.7824128e+11 </wgt>
<wgt id='1234'> +2.7634789e+11 </wgt>
<wgt id='1235'> +3.0318373e+11 </wgt>
<wgt id='1236'> +2.7659792e+11 </wgt>
<wgt id='1237'> +2.8991209e+11 </wgt>
<wgt id='1238'> +2.8988518e+11 </wgt>
<wgt id='1239'> +2.9229456e+11 </wgt>
<wgt id='1240'> +2.8573788e+11 </wgt>
<wgt id='1241'> +2.8195355e+11 </wgt>
<wgt id='1242'> +2.8081054e+11 </wgt>
<wgt id='1243'> +2.8907814e+11 </wgt>
<wgt id='1244'> +2.8117905e+11 </wgt>
<wgt id='1245'> +2.8189692e+11 </wgt>
<wgt id='1246'> +3.0733921e+11 </wgt>
<wgt id='1247'> +2.8382288e+11 </wgt>
<wgt id='1248'> +2.7546572e+11 </wgt>
<wgt id='1249'> +2.7774224e+11 </wgt>
<wgt id='1250'> +2.9212090e+11 </wgt>
<wgt id='1251'> +2.9872690e+11 </wgt>
<wgt id='1252'> +2.8722316e+11 </wgt>
<wgt id='1253'> +2.8522857e+11 </wgt>
<wgt id='1254'> +2.8871357e+11 </wgt>
<wgt id='1255'> +2.9799800e+11 </wgt>
<wgt id='1256'> +2.9514265e+11 </wgt>
<wgt id='1257'> +2.8523562e+11 </wgt>
<wgt id='1258'> +3.0048427e+11 </wgt>
<wgt id='1259'> +2.9467265e+11 </wgt>
<wgt id='1260'> +3.2555689e+11 </wgt>
<wgt id='1261'> +3.1383760e+11 </wgt>
<wgt id='1262'> +2.8962812e+11 </wgt>
<wgt id='1263'> +2.9672939e+11 </wgt>
<wgt id='1264'> +2.9851801e+11 </wgt>
<wgt id='1265'> +2.9885466e+11 </wgt>
<wgt id='1266'> +2.9427201e+11 </wgt>
<wgt id='1267'> +3.1493946e+11 </wgt>
<wgt id='1268'> +2.9436546e+11 </wgt>
<wgt id='1269'> +2.8726862e+11 </wgt>
<wgt id='1270'> +2.9115801e+11 </wgt>
<wgt id='1271'> +2.7972667e+11 </wgt>
<wgt id='1272'> +2.9341234e+11 </wgt>
<wgt id='1273'> +2.9200104e+11 </wgt>
<wgt id='1274'> +2.8775679e+11 </wgt>
<wgt id='1275'> +2.9866166e+11 </wgt>
<wgt id='1276'> +2.9542359e+11 </wgt>
<wgt id='1277'> +2.9080013e+11 </wgt>
<wgt id='1278'> +2.8622644e+11 </wgt>
<wgt id='1279'> +2.8129234e+11 </wgt>
<wgt id='1280'> +2.9414675e+11 </wgt>
<wgt id='1281'> +2.8591939e+11 </wgt>
<wgt id='1282'> +2.9670072e+11 </wgt>
<wgt id='1283'> +2.9606227e+11 </wgt>
<wgt id='1284'> +3.1496844e+11 </wgt>
<wgt id='1285'> +3.0826406e+11 </wgt>
<wgt id='1286'> +3.2873471e+11 </wgt>
<wgt id='1287'> +3.0332361e+11 </wgt>
<wgt id='1288'> +3.2353151e+11 </wgt>
<wgt id='1289'> +3.1303718e+11 </wgt>
<wgt id='1290'> +3.1144981e+11 </wgt>
<wgt id='1291'> +2.7796836e+11 </wgt>
<wgt id='1292'> +2.9736726e+11 </wgt>
<wgt id='1293'> +3.0013646e+11 </wgt>
<wgt id='1294'> +3.1433300e+11 </wgt>
<wgt id='1295'> +2.9787225e+11 </wgt>
<wgt id='1296'> +3.1521497e+11 </wgt>
<wgt id='1297'> +2.9564856e+11 </wgt>
<wgt id='1298'> +2.8783535e+11 </wgt>
<wgt id='1299'> +2.9852693e+11 </wgt>
<wgt id='1300'> +2.8803973e+11 </wgt>
<wgt id='1301'> +2.8109119e+11 </wgt>
<wgt id='1302'> +2.7540935e+11 </wgt>
<wgt id='1303'> +2.9837653e+11 </wgt>
<wgt id='1304'> +3.0574317e+11 </wgt>
<wgt id='1305'> +2.9837172e+11 </wgt>
<wgt id='1306'> +3.0522940e+11 </wgt>
<wgt id='1307'> +3.0405089e+11 </wgt>
<wgt id='1308'> +3.2528280e+11 </wgt>
<wgt id='1309'> +2.9577258e+11 </wgt>
<wgt id='1310'> +3.0223713e+11 </wgt>
<wgt id='1311'> +3.0822705e+11 </wgt>
<wgt id='1312'> +2.9901862e+11 </wgt>
<wgt id='1313'> +2.9680686e+11 </wgt>
<wgt id='1314'> +3.0441819e+11 </wgt>
<wgt id='1315'> +2.8488236e+11 </wgt>
<wgt id='1316'> +2.9852709e+11 </wgt>
<wgt id='1317'> +3.0124545e+11 </wgt>
<wgt id='1318'> +2.8617306e+11 </wgt>
<wgt id='1319'> +3.0806935e+11 </wgt>
<wgt id='1320'> +3.0893562e+11 </wgt>
<wgt id='1321'> +2.9373243e+11 </wgt>
<wgt id='1322'> +2.9783861e+11 </wgt>
<wgt id='1323'> +2.9882304e+11 </wgt>
<wgt id='1324'> +3.0124709e+11 </wgt>
<wgt id='1325'> +3.1094754e+11 </wgt>
<wgt id='1326'> +3.0273044e+11 </wgt>
<wgt id='1327'> +2.9317638e+11 </wgt>
<wgt id='1328'> +3.0287983e+11 </wgt>
<wgt id='1329'> +2.9778448e+11 </wgt>
<wgt id='1330'> +2.9087987e+11 </wgt>
<wgt id='1331'> +3.1920782e+11 </wgt>
<wgt id='1332'> +2.8591387e+11 </wgt>
<wgt id='1333'> +3.0053158e+11 </wgt>
<wgt id='1334'> +3.1390442e+11 </wgt>
<wgt id='1335'> +2.9253114e+11 </wgt>
<wgt id='1336'> +3.0208315e+11 </wgt>
<wgt id='1337'> +3.0851569e+11 </wgt>
<wgt id='1338'> +2.8991508e+11 </wgt>
<wgt id='1339'> +3.2046431e+11 </wgt>
<wgt id='1340'> +3.0162445e+11 </wgt>
<wgt id='1341'> +3.0462312e+11 </wgt>
<wgt id='1342'> +3.1592049e+11 </wgt>
<wgt id='1343'> +3.1036540e+11 </wgt>
<wgt id='1344'> +3.0312379e+11 </wgt>
<wgt id='1345'> +2.8041294e+11 </wgt>
<wgt id='1346'> +2.9945920e+11 </wgt>
<wgt id='1347'> +2.8676070e+11 </wgt>
<wgt id='1348'> +2.8802161e+11 </wgt>
<wgt id='1349'> +2.9000796e+11 </wgt>
<wgt id='1350'> +3.0036960e+11 </wgt>
<wgt id='1351'> +2.9694429e+11 </wgt>
<wgt id='1352'> +3.0045295e+11 </wgt>
<wgt id='1353'> +2.9713884e+11 </wgt>
<wgt id='1354'> +3.0692094e+11 </wgt>
<wgt id='1355'> +2.7546700e+11 </wgt>
<wgt id='1356'> +2.7822391e+11 </wgt>
<wgt id='1357'> +2.7638190e+11 </wgt>
<wgt id='1358'> +2.7286049e+11 </wgt>
<wgt id='1359'> +2.7624893e+11 </wgt>
<wgt id='1360'> +2.6863087e+11 </wgt>
<wgt id='1361'> +2.7553827e+11 </wgt>
<wgt id='1362'> +2.7716739e+11 </wgt>
<wgt id='1363'> +2.6925705e+11 </wgt>
<wgt id='1364'> +2.8179526e+11 </wgt>
<wgt id='1365'> +2.7313428e+11 </wgt>
<wgt id='1366'> +2.7571059e+11 </wgt>
<wgt id='1367'> +2.7633134e+11 </wgt>
<wgt id='1368'> +2.7549431e+11 </wgt>
<wgt id='1369'> +2.7984817e+11 </wgt>
<wgt id='1370'> +2.7359038e+11 </wgt>
<wgt id='1371'> +2.7305029e+11 </wgt>
<wgt id='1372'> +2.8003083e+11 </wgt>
<wgt id='1373'> +2.7913191e+11 </wgt>
<wgt id='1374'> +2.6736654e+11 </wgt>
<wgt id='1375'> +2.7430166e+11 </wgt>
<wgt id='1376'> +2.7641260e+11 </wgt>
<wgt id='1377'> +2.7535059e+11 </wgt>
<wgt id='1378'> +2.7117789e+11 </wgt>
<wgt id='1379'> +2.7393496e+11 </wgt>
<wgt id='1380'> +2.7391981e+11 </wgt>
<wgt id='1381'> +2.8079342e+11 </wgt>
<wgt id='1382'> +2.7511228e+11 </wgt>
<wgt id='1383'> +2.7549520e+11 </wgt>
<wgt id='1384'> +2.7387199e+11 </wgt>
<wgt id='1385'> +2.7407642e+11 </wgt>
<wgt id='1386'> +2.7750604e+11 </wgt>
<wgt id='1387'> +2.7449008e+11 </wgt>
<wgt id='1388'> +2.7180019e+11 </wgt>
<wgt id='1389'> +2.7373295e+11 </wgt>
<wgt id='1390'> +2.7432444e+11 </wgt>
<wgt id='1391'> +2.7320423e+11 </wgt>
<wgt id='1392'> +2.7331427e+11 </wgt>
<wgt id='1393'> +2.7338623e+11 </wgt>
<wgt id='1394'> +2.7314895e+11 </wgt>
<wgt id='1395'> +2.7123270e+11 </wgt>
<wgt id='1396'> +2.7652524e+11 </wgt>
<wgt id='1397'> +2.7605625e+11 </wgt>
<wgt id='1398'> +2.7605771e+11 </wgt>
<wgt id='1399'> +2.7102184e+11 </wgt>
<wgt id='1400'> +2.7257103e+11 </wgt>
<wgt id='1401'> +2.7390879e+11 </wgt>
<wgt id='1402'> +2.7873622e+11 </wgt>
<wgt id='1403'> +2.7847139e+11 </wgt>
<wgt id='1404'> +2.7314489e+11 </wgt>
<wgt id='1405'> +2.8157997e+11 </wgt>
<wgt id='1406'> +2.7515729e+11 </wgt>
<wgt id='1407'> +2.7619222e+11 </wgt>
<wgt id='1408'> +2.7859346e+11 </wgt>
<wgt id='1409'> +2.7342901e+11 </wgt>
<wgt id='1410'> +2.7330693e+11 </wgt>
<wgt id='1411'> +2.7514773e+11 </wgt>
<wgt id='1412'> +2.7439597e+11 </wgt>
<wgt id='1413'> +2.7236436e+11 </wgt>
<wgt id='1414'> +2.7714008e+11 </wgt>
<wgt id='1415'> +2.8133921e+11 </wgt>
<wgt id='1416'> +2.7863766e+11 </wgt>
<wgt id='1417'> +2.6866670e+11 </wgt>
<wgt id='1418'> +2.7718511e+11 </wgt>
<wgt id='1419'> +2.7898393e+11 </wgt>
<wgt id='1420'> +2.7472192e+11 </wgt>
<wgt id='1421'> +2.8152094e+11 </wgt>
<wgt id='1422'> +2.6784696e+11 </wgt>
<wgt id='1423'> +2.8072377e+11 </wgt>
<wgt id='1424'> +2.7646842e+11 </wgt>
<wgt id='1425'> +2.7565640e+11 </wgt>
<wgt id='1426'> +2.7907942e+11 </wgt>
<wgt id='1427'> +2.7544140e+11 </wgt>
<wgt id='1428'> +2.7533458e+11 </wgt>
<wgt id='1429'> +2.7118508e+11 </wgt>
<wgt id='1430'> +2.7069450e+11 </wgt>
<wgt id='1431'> +2.7080058e+11 </wgt>
<wgt id='1432'> +2.7748004e+11 </wgt>
<wgt id='1433'> +2.7619241e+11 </wgt>
<wgt id='1434'> +2.8210949e+11 </wgt>
<wgt id='1435'> +2.7461467e+11 </wgt>
<wgt id='1436'> +2.7966256e+11 </wgt>
<wgt id='1437'> +2.7825461e+11 </wgt>
<wgt id='1438'> +2.7345696e+11 </wgt>
<wgt id='1439'> +2.7608113e+11 </wgt>
<wgt id='1440'> +2.8013011e+11 </wgt>
<wgt id='1441'> +2.7546559e+11 </wgt>
<wgt id='1442'> +2.8320868e+11 </wgt>
<wgt id='1443'> +2.7365844e+11 </wgt>
<wgt id='1444'> +2.7366102e+11 </wgt>
<wgt id='1445'> +2.7850241e+11 </wgt>
<wgt id='1446'> +2.7758934e+11 </wgt>
<wgt id='1447'> +2.7141506e+11 </wgt>
<wgt id='1448'> +2.7782149e+11 </wgt>
<wgt id='1449'> +2.7675119e+11 </wgt>
<wgt id='1450'> +2.7353565e+11 </wgt>
<wgt id='1451'> +2.7669649e+11 </wgt>
<wgt id='1452'> +2.7870264e+11 </wgt>
<wgt id='1453'> +2.8065674e+11 </wgt>
<wgt id='1454'> +2.6888060e+11 </wgt>
<wgt id='1455'> +2.7471899e+11 </wgt>
<wgt id='1456'> +2.7471000e+11 </wgt>
<wgt id='1457'> +2.7423918e+11 </wgt>
<wgt id='1458'> +2.7727375e+11 </wgt>
<wgt id='1459'> +3.0500658e+11 </wgt>
<wgt id='1460'> +3.0033282e+11 </wgt>
<wgt id='1461'> +3.4716383e+11 </wgt>
<wgt id='1462'> +2.9971990e+11 </wgt>
<wgt id='1463'> +2.9997072e+11 </wgt>
<wgt id='1464'> +2.9939825e+11 </wgt>
<wgt id='1465'> +2.9978119e+11 </wgt>
<wgt id='1466'> +2.9966393e+11 </wgt>
<wgt id='1467'> +2.9988436e+11 </wgt>
<wgt id='1468'> +2.9945010e+11 </wgt>
<wgt id='1469'> +2.9926868e+11 </wgt>
<wgt id='1470'> +3.0008640e+11 </wgt>
<wgt id='1471'> +3.0019951e+11 </wgt>
<wgt id='1472'> +2.9922594e+11 </wgt>
<wgt id='1473'> +3.0086955e+11 </wgt>
<wgt id='1474'> +2.9861569e+11 </wgt>
<wgt id='1475'> +3.0081757e+11 </wgt>
<wgt id='1476'> +2.9894167e+11 </wgt>
<wgt id='1477'> +2.9914545e+11 </wgt>
<wgt id='1478'> +3.0106179e+11 </wgt>
<wgt id='1479'> +2.9913763e+11 </wgt>
<wgt id='1480'> +3.0012625e+11 </wgt>
<wgt id='1481'> +2.9930119e+11 </wgt>
<wgt id='1482'> +3.0028450e+11 </wgt>
<wgt id='1483'> +2.9981871e+11 </wgt>
<wgt id='1484'> +2.9957953e+11 </wgt>
<wgt id='1485'> +2.9992062e+11 </wgt>
<wgt id='1486'> +2.9923654e+11 </wgt>
<wgt id='1487'> +2.9996754e+11 </wgt>
<wgt id='1488'> +2.9940831e+11 </wgt>
<wgt id='1489'> +2.9936905e+11 </wgt>
<wgt id='1490'> +3.0067103e+11 </wgt>
<wgt id='1491'> +3.0464006e+11 </wgt>
<wgt id='1492'> +2.9697353e+11 </wgt>
<wgt id='1493'> +2.9622533e+11 </wgt>
<wgt id='1494'> +3.1067151e+11 </wgt>
<wgt id='1495'> +2.9909046e+11 </wgt>
<wgt id='1496'> +3.0039501e+11 </wgt>
<wgt id='1497'> +2.9991884e+11 </wgt>
<wgt id='1498'> +2.9944802e+11 </wgt>
<wgt id='1499'> +3.0158319e+11 </wgt>
<wgt id='1500'> +2.9870049e+11 </wgt>
<wgt id='1501'> +3.0018730e+11 </wgt>
<wgt id='1502'> +2.9848105e+11 </wgt>
<wgt id='1503'> +2.9660948e+11 </wgt>
<wgt id='1504'> +3.0301427e+11 </wgt>
<wgt id='1505'> +3.0075672e+11 </wgt>
<wgt id='1506'> +2.9872501e+11 </wgt>
<wgt id='1507'> +3.0097108e+11 </wgt>
<wgt id='1508'> +2.9910596e+11 </wgt>
<wgt id='1509'> +3.0028816e+11 </wgt>
<wgt id='1510'> +2.9728149e+11 </wgt>
<wgt id='1511'> +3.0082367e+11 </wgt>
<wgt id='1512'> +2.9941039e+11 </wgt>
<wgt id='1513'> +2.9964208e+11 </wgt>
<wgt id='1514'> +2.9978924e+11 </wgt>
<wgt id='1515'> +3.0209409e+11 </wgt>
<wgt id='1516'> +3.0020272e+11 </wgt>
<wgt id='1517'> +2.9935128e+11 </wgt>
<wgt id='1518'> +3.0001605e+11 </wgt>
<wgt id='1519'> +2.9810395e+11 </wgt>
<wgt id='1520'> +3.0087024e+11 </wgt>
<wgt id='1521'> +2.9896697e+11 </wgt>
<wgt id='1522'> +3.0017323e+11 </wgt>
<wgt id='1523'> +3.0109356e+11 </wgt>
<wgt id='1524'> +3.0106470e+11 </wgt>
<wgt id='1525'> +3.0097442e+11 </wgt>
<wgt id='1526'> +3.0047847e+11 </wgt>
<wgt id='1527'> +2.9971990e+11 </wgt>
<wgt id='1528'> +2.9956632e+11 </wgt>
<wgt id='1529'> +2.9933982e+11 </wgt>
<wgt id='1530'> +2.9557014e+11 </wgt>
<wgt id='1531'> +2.9655613e+11 </wgt>
<wgt id='1532'> +2.9416610e+11 </wgt>
<wgt id='1533'> +2.9218107e+11 </wgt>
<wgt id='1534'> +2.9494317e+11 </wgt>
<wgt id='1535'> +2.9902868e+11 </wgt>
<wgt id='1536'> +2.9346694e+11 </wgt>
<wgt id='1537'> +2.9644427e+11 </wgt>
<wgt id='1538'> +2.9339119e+11 </wgt>
<wgt id='1539'> +3.0280646e+11 </wgt>
<wgt id='1540'> +2.9567730e+11 </wgt>
<wgt id='1541'> +2.9663702e+11 </wgt>
<wgt id='1542'> +2.9645513e+11 </wgt>
<wgt id='1543'> +2.9757655e+11 </wgt>
<wgt id='1544'> +2.9465538e+11 </wgt>
<wgt id='1545'> +2.9460157e+11 </wgt>
<wgt id='1546'> +2.9266124e+11 </wgt>
<wgt id='1547'> +2.9884775e+11 </wgt>
<wgt id='1548'> +2.9454046e+11 </wgt>
<wgt id='1549'> +2.9322723e+11 </wgt>
<wgt id='1550'> +2.9714070e+11 </wgt>
<wgt id='1551'> +2.9720541e+11 </wgt>
<wgt id='1552'> +2.9586433e+11 </wgt>
<wgt id='1553'> +2.9833387e+11 </wgt>
<wgt id='1554'> +2.9639484e+11 </wgt>
<wgt id='1555'> +2.9715198e+11 </wgt>
<wgt id='1556'> +2.9891370e+11 </wgt>
<wgt id='1557'> +2.9587377e+11 </wgt>
<wgt id='1558'> +2.9652765e+11 </wgt>
<wgt id='1559'> +2.9454426e+11 </wgt>
<wgt id='1560'> +2.9534424e+11 </wgt>
<wgt id='1561'> +2.9258037e+11 </wgt>
<wgt id='1562'> +2.9511295e+11 </wgt>
<wgt id='1563'> +2.9647265e+11 </wgt>
<wgt id='1564'> +2.9617735e+11 </wgt>
<wgt id='1565'> +2.9875474e+11 </wgt>
<wgt id='1566'> +2.9686549e+11 </wgt>
<wgt id='1567'> +3.0012703e+11 </wgt>
<wgt id='1568'> +2.9650111e+11 </wgt>
<wgt id='1569'> +2.9619425e+11 </wgt>
<wgt id='1570'> +2.9799053e+11 </wgt>
<wgt id='1571'> +2.9635290e+11 </wgt>
<wgt id='1572'> +2.9824069e+11 </wgt>
<wgt id='1573'> +2.9931936e+11 </wgt>
<wgt id='1574'> +2.6390015e+11 </wgt>
<wgt id='1575'> +2.6397214e+11 </wgt>
<wgt id='1576'> +2.6383254e+11 </wgt>
<wgt id='1577'> +2.6391836e+11 </wgt>
<wgt id='1578'> +2.6450813e+11 </wgt>
<wgt id='1579'> +2.6476743e+11 </wgt>
<wgt id='1580'> +2.6453951e+11 </wgt>
<wgt id='1581'> +2.6327137e+11 </wgt>
<wgt id='1582'> +2.6296348e+11 </wgt>
<wgt id='1583'> +2.6346415e+11 </wgt>
<wgt id='1584'> +2.6447672e+11 </wgt>
<wgt id='1585'> +2.6408739e+11 </wgt>
<wgt id='1586'> +2.6287301e+11 </wgt>
<wgt id='1587'> +2.6313052e+11 </wgt>
<wgt id='1588'> +2.6262657e+11 </wgt>
<wgt id='1589'> +2.6365238e+11 </wgt>
<wgt id='1590'> +2.6371093e+11 </wgt>
<wgt id='1591'> +2.6396743e+11 </wgt>
<wgt id='1592'> +2.6286839e+11 </wgt>
<wgt id='1593'> +2.6304036e+11 </wgt>
<wgt id='1594'> +2.6470736e+11 </wgt>
<wgt id='1595'> +2.6167878e+11 </wgt>
<wgt id='1596'> +2.6746083e+11 </wgt>
<wgt id='1597'> +2.6562825e+11 </wgt>
<wgt id='1598'> +2.6585734e+11 </wgt>
<wgt id='1599'> +2.6116835e+11 </wgt>
<wgt id='1600'> +2.6830789e+11 </wgt>
<wgt id='1601'> +2.6604182e+11 </wgt>
<wgt id='1602'> +2.6395751e+11 </wgt>
<wgt id='1603'> +2.7420978e+11 </wgt>
<wgt id='1604'> +2.6397758e+11 </wgt>
</rwgt>
</event>
<event>
 9      1 +2.8343000e+11 1.39999800e+03 7.81738600e-03 7.88881300e-02
       21 -1    0    0  504  503 +0.0000000000e+00 +0.0000000000e+00 +1.3588730175e+03 1.3588730175e+03 0.0000000000e+00 0.0000e+00 1.0000e+00
       21 -1    0    0  503  504 -0.0000000000e+00 -0.0000000000e+00 -3.6059165021e+02 3.6059165021e+02 0.0000000000e+00 0.0000e+00 1.0000e+00
       45  2    1    2    0    0 +0.0000000000e+00 +0.0000000000e+00 +9.9828136727e+02 1.7194646677e+03 1.3999975197e+03 0.0000e+00 0.0000e+00
       25  2    3    3    0    0 +2.3590680052e+02 -5.2248184347e+02 +2.6168883418e+01 5.8732449251e+02 1.2500381495e+02 0.0000e+00 0.0000e+00
       35  2    3    3    0    0 -2.3590680052e+02 +5.2248184347e+02 +9.7211248385e+02 1.1321401752e+03 8.9996664854e+01 0.0000e+00 0.0000e+00
        5  1    5    5  501    0 -1.4735129830e+02 +3.9645197685e+02 +6.5714695226e+02 7.8150268695e+02 4.2140000000e+00 0.0000e+00 -1.0000e+00
       -5  1    5    5    0  501 -8.8555502219e+01 +1.2602986662e+02 +3.1496553160e+02 3.5063748822e+02 4.2140000000e+00 0.0000e+00 -1.0000e+00
        5  1    4    4  502    0 +2.1420351202e+01 -1.8694781769e+02 +8.1080552164e-02 1.8821817753e+02 4.2140000000e+00 0.0000e+00 -1.0000e+00
       -5  1    4    4    0  502 +2.1448644931e+02 -3.3553402579e+02 +2.6087802865e+01 3.9910631498e+02 4.2140000000e+00 0.0000e+00 -1.0000e+00
<mgrwt>
<rscale>  0 0.13999975E+04</rscale>
<asrwt>0</asrwt>
<pdfrwt beam="1">  1       21 0.20905738E+00 0.13999975E+04</pdfrwt>
<pdfrwt beam="2">  1       21 0.55475639E-01 0.13999975E+04</pdfrwt>
<totfact> 0.24080839E+02</totfact>
</mgrwt>
<rwgt>
<wgt id='1001'> +2.8343000e+11 </wgt>
<wgt id='1002'> +2.9232121e+11 </wgt>
<wgt id='1003'> +2.9231861e+11 </wgt>
<wgt id='1004'> +3.2987775e+11 </wgt>
<wgt id='1005'> +2.8343000e+11 </wgt>
<wgt id='1006'> +2.8343000e+11 </wgt>
<wgt id='1007'> +2.9232121e+11 </wgt>
<wgt id='1008'> +2.9231861e+11 </wgt>
<wgt id='1009'> +3.2987775e+11 </wgt>
<wgt id='1010'> +2.8343000e+11 </wgt>
<wgt id='1011'> +2.8343000e+11 </wgt>
<wgt id='1012'> +2.9232121e+11 </wgt>
<wgt id='1013'> +2.9231861e+11 </wgt>
<wgt id='1014'> +3.2987775e+11 </wgt>
<wgt id='1015'> +2.8343000e+11 </wgt>
<wgt id='1016'> +2.5357020e+11 </wgt>
<wgt id='1017'> +2.6104184e+11 </wgt>
<wgt id='1018'> +2.6103965e+11 </wgt>
<wgt id='1019'> +2.9231861e+11 </wgt>
<wgt id='1020'> +2.5357020e+11 </wgt>
<wgt id='1021'> +2.5357020e+11 </wgt>
<wgt id='1022'> +2.6104184e+11 </wgt>
<wgt id='1023'> +2.6103965e+11 </wgt>
<wgt id='1024'> +2.9231861e+11 </wgt>
<wgt id='1025'> +2.5357020e+11 </wgt>
<wgt id='1026'> +2.5357020e+11 </wgt>
<wgt id='1027'> +2.6104184e+11 </wgt>
<wgt id='1028'> +2.6103965e+11 </wgt>
<wgt id='1029'> +2.9231861e+11 </wgt>
<wgt id='1030'> +2.5357020e+11 </wgt>
<wgt id='1031'> +3.1916376e+11 </wgt>
<wgt id='1032'> +3.2988089e+11 </wgt>
<wgt id='1033'> +3.2987775e+11 </wgt>
<wgt id='1034'> +3.7542974e+11 </wgt>
<wgt id='1035'> +3.1916376e+11 </wgt>
<wgt id='1036'> +3.1916376e+11 </wgt>
<wgt id='1037'> +3.2988089e+11 </wgt>
<wgt id='1038'> +3.2987775e+11 </wgt>
<wgt id='1039'> +3.7542974e+11 </wgt>
<wgt id='1040'> +3.1916376e+11 </wgt>
<wgt id='1041'> +3.1916376e+11 </wgt>
<wgt id='1042'> +3.2988089e+11 </wgt>
<wgt id='1043'> +3.2987775e+11 </wgt>
<wgt id='1044'> +3.7542974e+11 </wgt>
<wgt id='1045'> +3.1916376e+11 </wgt>
<wgt id='1046'> +2.8343000e+11 </wgt>
<wgt id='1047'> +2.8343000e+11 </wgt>
<wgt id='1048'> +2.8343000e+11 </wgt>
<wgt id='1049'> +2.8299890e+11 </wgt>
<wgt id='1050'> +2.8318685e+11 </wgt>
<wgt id='1051'> +2.8338551e+11 </wgt>
<wgt id='1052'> +2.8416528e+11 </wgt>
<wgt id='1053'> +2.8156843e+11 </wgt>
<wgt id='1054'> +2.8381789e+11 </wgt>
<wgt id='1055'> +2.8211149e+11 </wgt>
<wgt id='1056'> +2.8207343e+11 </wgt>
<wgt id='1057'> +2.8276048e+11 </wgt>
<wgt id='1058'> +2.8259504e+11 </wgt>
<wgt id='1059'> +2.8552607e+11 </wgt>
<wgt id='1060'> +2.8372836e+11 </wgt>
<wgt id='1061'> +2.8398229e+11 </wgt>
<wgt id='1062'> +2.8428635e+11 </wgt>
<wgt id='1063'> +2.8471312e+11 </wgt>
<wgt id='1064'> +2.8408258e+11 </wgt>
<wgt id='1065'> +2.8482371e+11 </wgt>
<wgt id='1066'> +2.8150491e+11 </wgt>
<wgt id='1067'> +2.8238710e+11 </wgt>
<wgt id='1068'> +2.8386013e+11 </wgt>
<wgt id='1069'> +2.8253213e+11 </wgt>
<wgt id='1070'> +2.8409687e+11 </wgt>
<wgt id='1071'> +2.8264524e+11 </wgt>
<wgt id='1072'> +2.8360660e+11 </wgt>
<wgt id='1073'> +2.8236780e+11 </wgt>
<wgt id='1074'> +2.8251076e+11 </wgt>
<wgt id='1075'> +2.8388016e+11 </wgt>
<wgt id='1076'> +2.8167034e+11 </wgt>
<wgt id='1077'> +2.8202414e+11 </wgt>
<wgt id='1078'> +2.8407331e+11 </wgt>
<wgt id='1079'> +2.8224379e+11 </wgt>
<wgt id='1080'> +2.8301824e+11 </wgt>
<wgt id='1081'> +2.8303195e+11 </wgt>
<wgt id='1082'> +2.8234123e+11 </wgt>
<wgt id='1083'> +2.8445861e+11 </wgt>
<wgt id='1084'> +2.8402435e+11 </wgt>
<wgt id='1085'> +2.8266075e+11 </wgt>
<wgt id='1086'> +2.8347435e+11 </wgt>
<wgt id='1087'> +2.8345481e+11 </wgt>
<wgt id='1088'> +2.8292605e+11 </wgt>
<wgt id='1089'> +2.8248237e+11 </wgt>
<wgt id='1090'> +2.8405625e+11 </wgt>
<wgt id='1091'> +2.8361516e+11 </wgt>
<wgt id='1092'> +2.8361950e+11 </wgt>
<wgt id='1093'> +2.8349248e+11 </wgt>
<wgt id='1094'> +2.8222622e+11 </wgt>
<wgt id='1095'> +2.8367553e+11 </wgt>
<wgt id='1096'> +2.8340733e+11 </wgt>
<wgt id='1097'> +2.8282743e+11 </wgt>
<wgt id='1098'> +2.8319264e+11 </wgt>
<wgt id='1099'> +2.8323454e+11 </wgt>
<wgt id='1100'> +2.8402668e+11 </wgt>
<wgt id='1101'> +2.8348659e+11 </wgt>
<wgt id='1102'> +2.8333357e+11 </wgt>
<wgt id='1103'> +2.8269290e+11 </wgt>
<wgt id='1104'> +2.8331040e+11 </wgt>
<wgt id='1105'> +2.8351026e+11 </wgt>
<wgt id='1106'> +2.8379705e+11 </wgt>
<wgt id='1107'> +2.8366984e+11 </wgt>
<wgt id='1108'> +2.8321317e+11 </wgt>
<wgt id='1109'> +2.8328642e+11 </wgt>
<wgt id='1110'> +2.8363907e+11 </wgt>
<wgt id='1111'> +2.8371053e+11 </wgt>
<wgt id='1112'> +2.8333346e+11 </wgt>
<wgt id='1113'> +2.8378002e+11 </wgt>
<wgt id='1114'> +2.8313893e+11 </wgt>
<wgt id='1115'> +2.8295418e+11 </wgt>
<wgt id='1116'> +2.8412117e+11 </wgt>
<wgt id='1117'> +2.8335577e+11 </wgt>
<wgt id='1118'> +2.8376950e+11 </wgt>
<wgt id='1119'> +2.8302280e+11 </wgt>
<wgt id='1120'> +2.8304296e+11 </wgt>
<wgt id='1121'> +2.8349789e+11 </wgt>
<wgt id='1122'> +2.8305588e+11 </wgt>
<wgt id='1123'> +2.8337304e+11 </wgt>
<wgt id='1124'> +2.8348777e+11 </wgt>
<wgt id='1125'> +2.8363230e+11 </wgt>
<wgt id='1126'> +2.8355975e+11 </wgt>
<wgt id='1127'> +2.8328793e+11 </wgt>
<wgt id='1128'> +2.8336491e+11 </wgt>
<wgt id='1129'> +2.8325291e+11 </wgt>
<wgt id='1130'> +2.8345804e+11 </wgt>
<wgt id='1131'> +2.8397048e+11 </wgt>
<wgt id='1132'> +2.8331517e+11 </wgt>
<wgt id='1133'> +2.8357727e+11 </wgt>
<wgt id='1134'> +2.8340304e+11 </wgt>
<wgt id='1135'> +2.8346540e+11 </wgt>
<wgt id='1136'> +2.8330689e+11 </wgt>
<wgt id='1137'> +2.8320138e+11 </wgt>
<wgt id='1138'> +2.8358133e+11 </wgt>
<wgt id='1139'> +2.8354164e+11 </wgt>
<wgt id='1140'> +2.8371017e+11 </wgt>
<wgt id='1141'> +2.8316637e+11 </wgt>
<wgt id='1142'> +2.8348618e+11 </wgt>
<wgt id='1143'> +2.8363051e+11 </wgt>
<wgt id='1144'> +2.8332752e+11 </wgt>
<wgt id='1145'> +2.8359583e+11 </wgt>
<wgt id='1146'> +2.8350597e+11 </wgt>
<wgt id='1147'> +2.8349277e+11 </wgt>
<wgt id='1148'> +2.8343000e+11 </wgt>
<wgt id='1149'> +2.8343000e+11 </wgt>
<wgt id='1150'> +2.9643407e+11 </wgt>
<wgt id='1151'> +2.7638230e+11 </wgt>
<wgt id='1152'> +2.7245421e+11 </wgt>
<wgt id='1153'> +2.8558991e+11 </wgt>
<wgt id='1154'> +2.7948603e+11 </wgt>
<wgt id='1155'> +2.9616555e+11 </wgt>
<wgt id='1156'> +2.7986263e+11 </wgt>
<wgt id='1157'> +2.7573953e+11 </wgt>
<wgt id='1158'> +2.7706666e+11 </wgt>
<wgt id='1159'> +2.9715804e+11 </wgt>
<wgt id='1160'> +2.8550628e+11 </wgt>
<wgt id='1161'> +2.9199770e+11 </wgt>
<wgt id='1162'> +2.8676910e+11 </wgt>
<wgt id='1163'> +2.8717374e+11 </wgt>
<wgt id='1164'> +2.7445090e+11 </wgt>
<wgt id='1165'> +2.7740146e+11 </wgt>
<wgt id='1166'> +2.8333122e+11 </wgt>
<wgt id='1167'> +2.7836194e+11 </wgt>
<wgt id='1168'> +2.7338348e+11 </wgt>
<wgt id='1169'> +2.7632389e+11 </wgt>
<wgt id='1170'> +2.8476227e+11 </wgt>
<wgt id='1171'> +2.7358239e+11 </wgt>
<wgt id='1172'> +2.7332740e+11 </wgt>
<wgt id='1173'> +2.8601458e+11 </wgt>
<wgt id='1174'> +2.7683365e+11 </wgt>
<wgt id='1175'> +2.7905368e+11 </wgt>
<wgt id='1176'> +2.8759916e+11 </wgt>
<wgt id='1177'> +2.7929626e+11 </wgt>
<wgt id='1178'> +2.8551108e+11 </wgt>
<wgt id='1179'> +2.8696010e+11 </wgt>
<wgt id='1180'> +2.7799059e+11 </wgt>
<wgt id='1181'> +2.9445657e+11 </wgt>
<wgt id='1182'> +2.8097615e+11 </wgt>
<wgt id='1183'> +2.8864974e+11 </wgt>
<wgt id='1184'> +2.7617073e+11 </wgt>
<wgt id='1185'> +2.8989613e+11 </wgt>
<wgt id='1186'> +2.7880491e+11 </wgt>
<wgt id='1187'> +2.8537503e+11 </wgt>
<wgt id='1188'> +2.9119374e+11 </wgt>
<wgt id='1189'> +2.8194321e+11 </wgt>
<wgt id='1190'> +2.8016910e+11 </wgt>
<wgt id='1191'> +2.9050622e+11 </wgt>
<wgt id='1192'> +2.8763036e+11 </wgt>
<wgt id='1193'> +2.8892967e+11 </wgt>
<wgt id='1194'> +2.7817230e+11 </wgt>
<wgt id='1195'> +2.8721090e+11 </wgt>
<wgt id='1196'> +2.9086633e+11 </wgt>
<wgt id='1197'> +2.9053171e+11 </wgt>
<wgt id='1198'> +2.8708220e+11 </wgt>
<wgt id='1199'> +2.8695046e+11 </wgt>
<wgt id='1200'> +2.9113679e+11 </wgt>
<wgt id='1201'> +2.8246042e+11 </wgt>
<wgt id='1202'> +2.8487133e+11 </wgt>
<wgt id='1203'> +2.8489574e+11 </wgt>
<wgt id='1204'> +2.8010545e+11 </wgt>
<wgt id='1205'> +2.8513756e+11 </wgt>
<wgt id='1206'> +2.8104967e+11 </wgt>
<wgt id='1207'> +2.9154067e+11 </wgt>
<wgt id='1208'> +2.7117585e+11 </wgt>
<wgt id='1209'> +2.8535758e+11 </wgt>
<wgt id='1210'> +2.8730686e+11 </wgt>
<wgt id='1211'> +2.8078831e+11 </wgt>
<wgt id='1212'> +2.8289780e+11 </wgt>
<wgt id='1213'> +2.8617027e+11 </wgt>
<wgt id='1214'> +2.7935496e+11 </wgt>
<wgt id='1215'> +2.7925137e+11 </wgt>
<wgt id='1216'> +2.7567967e+11 </wgt>
<wgt id='1217'> +2.8105112e+11 </wgt>
<wgt id='1218'> +2.8506978e+11 </wgt>
<wgt id='1219'> +2.9336897e+11 </wgt>
<wgt id='1220'> +2.8099643e+11 </wgt>
<wgt id='1221'> +2.7689846e+11 </wgt>
<wgt id='1222'> +2.7884659e+11 </wgt>
<wgt id='1223'> +2.7403537e+11 </wgt>
<wgt id='1224'> +2.8219711e+11 </wgt>
<wgt id='1225'> +2.8251961e+11 </wgt>
<wgt id='1226'> +2.8527674e+11 </wgt>
<wgt id='1227'> +2.8124398e+11 </wgt>
<wgt id='1228'> +2.8248577e+11 </wgt>
<wgt id='1229'> +2.9965471e+11 </wgt>
<wgt id='1230'> +2.8781899e+11 </wgt>
<wgt id='1231'> +2.7740146e+11 </wgt>
<wgt id='1232'> +2.8801947e+11 </wgt>
<wgt id='1233'> +2.7668184e+11 </wgt>
<wgt id='1234'> +2.7866271e+11 </wgt>
<wgt id='1235'> +3.0047995e+11 </wgt>
<wgt id='1236'> +2.7958577e+11 </wgt>
<wgt id='1237'> +2.9081444e+11 </wgt>
<wgt id='1238'> +2.7962684e+11 </wgt>
<wgt id='1239'> +2.8635175e+11 </wgt>
<wgt id='1240'> +2.7504780e+11 </wgt>
<wgt id='1241'> +2.8916598e+11 </wgt>
<wgt id='1242'> +2.8085487e+11 </wgt>
<wgt id='1243'> +2.8383347e+11 </wgt>
<wgt id='1244'> +2.9122102e+11 </wgt>
<wgt id='1245'> +2.7492493e+11 </wgt>
<wgt id='1246'> +3.0372094e+11 </wgt>
<wgt id='1247'> +2.8139783e+11 </wgt>
<wgt id='1248'> +2.7348170e+11 </wgt>
<wgt id='1249'> +2.7548948e+11 </wgt>
<wgt id='1250'> +2.9441185e+11 </wgt>
<wgt id='1251'> +3.0336955e+11 </wgt>
<wgt id='1252'> +2.8872661e+11 </wgt>
<wgt id='1253'> +2.9523529e+11 </wgt>
<wgt id='1254'> +2.9055715e+11 </wgt>
<wgt id='1255'> +3.0596549e+11 </wgt>
<wgt id='1256'> +3.0545525e+11 </wgt>
<wgt id='1257'> +3.0244202e+11 </wgt>
<wgt id='1258'> +2.9216599e+11 </wgt>
<wgt id='1259'> +3.0830286e+11 </wgt>
<wgt id='1260'> +3.3053180e+11 </wgt>
<wgt id='1261'> +3.1675486e+11 </wgt>
<wgt id='1262'> +2.9624824e+11 </wgt>
<wgt id='1263'> +3.0095346e+11 </wgt>
<wgt id='1264'> +3.0361496e+11 </wgt>
<wgt id='1265'> +2.9264167e+11 </wgt>
<wgt id='1266'> +3.0600820e+11 </wgt>
<wgt id='1267'> +3.5448795e+11 </wgt>
<wgt id='1268'> +2.8847605e+11 </wgt>
<wgt id='1269'> +2.8683090e+11 </wgt>
<wgt id='1270'> +3.0842740e+11 </wgt>
<wgt id='1271'> +2.6495148e+11 </wgt>
<wgt id='1272'> +2.9450757e+11 </wgt>
<wgt id='1273'> +2.9133951e+11 </wgt>
<wgt id='1274'> +2.8769017e+11 </wgt>
<wgt id='1275'> +2.9307937e+11 </wgt>
<wgt id='1276'> +3.0606060e+11 </wgt>
<wgt id='1277'> +3.0146107e+11 </wgt>
<wgt id='1278'> +3.0142628e+11 </wgt>
<wgt id='1279'> +2.7934525e+11 </wgt>
<wgt id='1280'> +2.8621376e+11 </wgt>
<wgt id='1281'> +2.8564297e+11 </wgt>
<wgt id='1282'> +2.9499152e+11 </wgt>
<wgt id='1283'> +3.1476889e+11 </wgt>
<wgt id='1284'> +3.0701551e+11 </wgt>
<wgt id='1285'> +3.0826050e+11 </wgt>
<wgt id='1286'> +3.3281357e+11 </wgt>
<wgt id='1287'> +3.1512155e+11 </wgt>
<wgt id='1288'> +3.4071430e+11 </wgt>
<wgt id='1289'> +3.1723277e+11 </wgt>
<wgt id='1290'> +3.1380848e+11 </wgt>
<wgt id='1291'> +2.7941263e+11 </wgt>
<wgt id='1292'> +3.0530800e+11 </wgt>
<wgt id='1293'> +3.0433058e+11 </wgt>
<wgt id='1294'> +3.2870510e+11 </wgt>
<wgt id='1295'> +3.1221313e+11 </wgt>
<wgt id='1296'> +3.3506177e+11 </wgt>
<wgt id='1297'> +2.8939436e+11 </wgt>
<wgt id='1298'> +2.9033465e+11 </wgt>
<wgt id='1299'> +3.0599216e+11 </wgt>
<wgt id='1300'> +2.7971630e+11 </wgt>
<wgt id='1301'> +2.8021994e+11 </wgt>
<wgt id='1302'> +2.8211931e+11 </wgt>
<wgt id='1303'> +3.0597144e+11 </wgt>
<wgt id='1304'> +3.3204546e+11 </wgt>
<wgt id='1305'> +2.9848336e+11 </wgt>
<wgt id='1306'> +3.0680755e+11 </wgt>
<wgt id='1307'> +2.8468572e+11 </wgt>
<wgt id='1308'> +3.3326443e+11 </wgt>
<wgt id='1309'> +3.0311419e+11 </wgt>
<wgt id='1310'> +3.0474997e+11 </wgt>
<wgt id='1311'> +2.9657055e+11 </wgt>
<wgt id='1312'> +3.1999853e+11 </wgt>
<wgt id='1313'> +3.0681795e+11 </wgt>
<wgt id='1314'> +2.9158901e+11 </wgt>
<wgt id='1315'> +2.8849657e+11 </wgt>
<wgt id='1316'> +3.0042672e+11 </wgt>
<wgt id='1317'> +3.1712579e+11 </wgt>
<wgt id='1318'> +2.9219348e+11 </wgt>
<wgt id='1319'> +2.9746005e+11 </wgt>
<wgt id='1320'> +3.2010936e+11 </wgt>
<wgt id='1321'> +3.0559457e+11 </wgt>
<wgt id='1322'> +3.1657252e+11 </wgt>
<wgt id='1323'> +2.8647460e+11 </wgt>
<wgt id='1324'> +3.1176125e+11 </wgt>
<wgt id='1325'> +3.1421235e+11 </wgt>
<wgt id='1326'> +3.1116991e+11 </wgt>
<wgt id='1327'> +3.1763024e+11 </wgt>
<wgt id='1328'> +2.9956993e+11 </wgt>
<wgt id='1329'> +2.9802455e+11 </wgt>
<wgt id='1330'> +2.8396237e+11 </wgt>
<wgt id='1331'> +3.2501912e+11 </wgt>
<wgt id='1332'> +3.0145659e+11 </wgt>
<wgt id='1333'> +3.0286958e+11 </wgt>
<wgt id='1334'> +3.2107192e+11 </wgt>
<wgt id='1335'> +2.9173498e+11 </wgt>
<wgt id='1336'> +3.2107649e+11 </wgt>
<wgt id='1337'> +3.1024807e+11 </wgt>
<wgt id='1338'> +2.8673874e+11 </wgt>
<wgt id='1339'> +3.1310017e+11 </wgt>
<wgt id='1340'> +3.1382431e+11 </wgt>
<wgt id='1341'> +3.3149955e+11 </wgt>
<wgt id='1342'> +2.9987156e+11 </wgt>
<wgt id='1343'> +3.0949729e+11 </wgt>
<wgt id='1344'> +3.2066371e+11 </wgt>
<wgt id='1345'> +2.5901108e+11 </wgt>
<wgt id='1346'> +3.0605879e+11 </wgt>
<wgt id='1347'> +2.9558411e+11 </wgt>
<wgt id='1348'> +2.9170816e+11 </wgt>
<wgt id='1349'> +2.8900190e+11 </wgt>
<wgt id='1350'> +3.1398009e+11 </wgt>
<wgt id='1351'> +2.9046148e+11 </wgt>
<wgt id='1352'> +3.0555327e+11 </wgt>
<wgt id='1353'> +3.0302541e+11 </wgt>
<wgt id='1354'> +3.1194653e+11 </wgt>
<wgt id='1355'> +2.8007447e+11 </wgt>
<wgt id='1356'> +2.8261051e+11 </wgt>
<wgt id='1357'> +2.8078683e+11 </wgt>
<wgt id='1358'> +2.7868190e+11 </wgt>
<wgt id='1359'> +2.7880249e+11 </wgt>
<wgt id='1360'> +2.7550021e+11 </wgt>
<wgt id='1361'> +2.7854734e+11 </wgt>
<wgt id='1362'> +2.8842358e+11 </wgt>
<wgt id='1363'> +2.7904818e+11 </wgt>
<wgt id='1364'> +2.8593061e+11 </wgt>
<wgt id='1365'> +2.7799498e+11 </wgt>
<wgt id='1366'> +2.7614076e+11 </wgt>
<wgt id='1367'> +2.7905777e+11 </wgt>
<wgt id='1368'> +2.8097905e+11 </wgt>
<wgt id='1369'> +2.8346995e+11 </wgt>
<wgt id='1370'> +2.7596713e+11 </wgt>
<wgt id='1371'> +2.8020707e+11 </wgt>
<wgt id='1372'> +2.8016223e+11 </wgt>
<wgt id='1373'> +2.8358804e+11 </wgt>
<wgt id='1374'> +2.7394959e+11 </wgt>
<wgt id='1375'> +2.8171298e+11 </wgt>
<wgt id='1376'> +2.7907580e+11 </wgt>
<wgt id='1377'> +2.8036587e+11 </wgt>
<wgt id='1378'> +2.8126845e+11 </wgt>
<wgt id='1379'> +2.7841732e+11 </wgt>
<wgt id='1380'> +2.7749314e+11 </wgt>
<wgt id='1381'> +2.8424100e+11 </wgt>
<wgt id='1382'> +2.7845810e+11 </wgt>
<wgt id='1383'> +2.7703857e+11 </wgt>
<wgt id='1384'> +2.7512595e+11 </wgt>
<wgt id='1385'> +2.7472737e+11 </wgt>
<wgt id='1386'> +2.7739055e+11 </wgt>
<wgt id='1387'> +2.7823283e+11 </wgt>
<wgt id='1388'> +2.7549763e+11 </wgt>
<wgt id='1389'> +2.7845633e+11 </wgt>
<wgt id='1390'> +2.8294744e+11 </wgt>
<wgt id='1391'> +2.7961222e+11 </wgt>
<wgt id='1392'> +2.7564567e+11 </wgt>
<wgt id='1393'> +2.8177424e+11 </wgt>
<wgt id='1394'> +2.7955670e+11 </wgt>
<wgt id='1395'> +2.7478654e+11 </wgt>
<wgt id='1396'> +2.8036749e+11 </wgt>
<wgt id='1397'> +2.8053396e+11 </wgt>
<wgt id='1398'> +2.8436520e+11 </wgt>
<wgt id='1399'> +2.7827591e+11 </wgt>
<wgt id='1400'> +2.7458323e+11 </wgt>
<wgt id='1401'> +2.8098590e+11 </wgt>
<wgt id='1402'> +2.8239571e+11 </wgt>
<wgt id='1403'> +2.8946103e+11 </wgt>
<wgt id='1404'> +2.8389508e+11 </wgt>
<wgt id='1405'> +2.8765359e+11 </wgt>
<wgt id='1406'> +2.8373673e+11 </wgt>
<wgt id='1407'> +2.8107286e+11 </wgt>
<wgt id='1408'> +2.8774189e+11 </wgt>
<wgt id='1409'> +2.7479317e+11 </wgt>
<wgt id='1410'> +2.7217043e+11 </wgt>
<wgt id='1411'> +2.7979695e+11 </wgt>
<wgt id='1412'> +2.7942151e+11 </wgt>
<wgt id='1413'> +2.8299352e+11 </wgt>
<wgt id='1414'> +2.8262241e+11 </wgt>
<wgt id='1415'> +2.7933582e+11 </wgt>
<wgt id='1416'> +2.8111771e+11 </wgt>
<wgt id='1417'> +2.7790154e+11 </wgt>
<wgt id='1418'> +2.7890831e+11 </wgt>
<wgt id='1419'> +2.8338745e+11 </wgt>
<wgt id='1420'> +2.7481357e+11 </wgt>
<wgt id='1421'> +2.8688876e+11 </wgt>
<wgt id='1422'> +2.7288790e+11 </wgt>
<wgt id='1423'> +2.8388410e+11 </wgt>
<wgt id='1424'> +2.8037252e+11 </wgt>
<wgt id='1425'> +2.8041502e+11 </wgt>
<wgt id='1426'> +2.8235954e+11 </wgt>
<wgt id='1427'> +2.7846820e+11 </wgt>
<wgt id='1428'> +2.7823587e+11 </wgt>
<wgt id='1429'> +2.8105665e+11 </wgt>
<wgt id='1430'> +2.7672566e+11 </wgt>
<wgt id='1431'> +2.7658105e+11 </wgt>
<wgt id='1432'> +2.7639812e+11 </wgt>
<wgt id='1433'> +2.7525196e+11 </wgt>
<wgt id='1434'> +2.8700055e+11 </wgt>
<wgt id='1435'> +2.7941263e+11 </wgt>
<wgt id='1436'> +2.8403367e+11 </wgt>
<wgt id='1437'> +2.7855970e+11 </wgt>
<wgt id='1438'> +2.7985595e+11 </wgt>
<wgt id='1439'> +2.8676763e+11 </wgt>
<wgt id='1440'> +2.8083506e+11 </wgt>
<wgt id='1441'> +2.7604980e+11 </wgt>
<wgt id='1442'> +2.8273212e+11 </wgt>
<wgt id='1443'> +2.7639999e+11 </wgt>
<wgt id='1444'> +2.8601702e+11 </wgt>
<wgt id='1445'> +2.7919367e+11 </wgt>
<wgt id='1446'> +2.8846964e+11 </wgt>
<wgt id='1447'> +2.7971745e+11 </wgt>
<wgt id='1448'> +2.8271789e+11 </wgt>
<wgt id='1449'> +2.8318629e+11 </wgt>
<wgt id='1450'> +2.7940586e+11 </wgt>
<wgt id='1451'> +2.8028455e+11 </wgt>
<wgt id='1452'> +2.8220057e+11 </wgt>
<wgt id='1453'> +2.8141194e+11 </wgt>
<wgt id='1454'> +2.7124604e+11 </wgt>
<wgt id='1455'> +2.7849308e+11 </wgt>
<wgt id='1456'> +2.7850902e+11 </wgt>
<wgt id='1457'> +2.7972914e+11 </wgt>
<wgt id='1458'> +2.8660151e+11 </wgt>
<wgt id='1459'> +3.1246124e+11 </wgt>
<wgt id='1460'> +3.0723070e+11 </wgt>
<wgt id='1461'> +3.6704947e+11 </wgt>
<wgt id='1462'> +3.0129593e+11 </wgt>
<wgt id='1463'> +3.0151660e+11 </wgt>
<wgt id='1464'> +3.0101292e+11 </wgt>
<wgt id='1465'> +3.0136356e+11 </wgt>
<wgt id='1466'> +3.0123417e+11 </wgt>
<wgt id='1467'> +3.0140976e+11 </wgt>
<wgt id='1468'> +3.0110916e+11 </wgt>
<wgt id='1469'> +3.0086424e+11 </wgt>
<wgt id='1470'> +3.0164653e+11 </wgt>
<wgt id='1471'> +3.0174446e+11 </wgt>
<wgt id='1472'> +3.0083394e+11 </wgt>
<wgt id='1473'> +3.0249538e+11 </wgt>
<wgt id='1474'> +3.0014385e+11 </wgt>
<wgt id='1475'> +3.0243175e+11 </wgt>
<wgt id='1476'> +3.0049081e+11 </wgt>
<wgt id='1477'> +3.0074931e+11 </wgt>
<wgt id='1478'> +3.0257310e+11 </wgt>
<wgt id='1479'> +3.0096754e+11 </wgt>
<wgt id='1480'> +3.0153003e+11 </wgt>
<wgt id='1481'> +3.0073871e+11 </wgt>
<wgt id='1482'> +3.0204980e+11 </wgt>
<wgt id='1483'> +3.0135513e+11 </wgt>
<wgt id='1484'> +3.0121560e+11 </wgt>
<wgt id='1485'> +3.0150622e+11 </wgt>
<wgt id='1486'> +3.0078944e+11 </wgt>
<wgt id='1487'> +3.0158108e+11 </wgt>
<wgt id='1488'> +3.0094002e+11 </wgt>
<wgt id='1489'> +3.0092001e+11 </wgt>
<wgt id='1490'> +3.0231550e+11 </wgt>
<wgt id='1491'> +3.0633728e+11 </wgt>
<wgt id='1492'> +2.9848727e+11 </wgt>
<wgt id='1493'> +2.9762213e+11 </wgt>
<wgt id='1494'> +3.1281929e+11 </wgt>
<wgt id='1495'> +3.0046733e+11 </wgt>
<wgt id='1496'> +3.0218584e+11 </wgt>
<wgt id='1497'> +3.0150589e+11 </wgt>
<wgt id='1498'> +3.0100925e+11 </wgt>
<wgt id='1499'> +3.0338822e+11 </wgt>
<wgt id='1500'> +3.0015359e+11 </wgt>
<wgt id='1501'> +3.0164628e+11 </wgt>
<wgt id='1502'> +3.0037420e+11 </wgt>
<wgt id='1503'> +2.9707941e+11 </wgt>
<wgt id='1504'> +3.0599893e+11 </wgt>
<wgt id='1505'> +3.0199370e+11 </wgt>
<wgt id='1506'> +3.0060761e+11 </wgt>
<wgt id='1507'> +3.0451581e+11 </wgt>
<wgt id='1508'> +2.9627985e+11 </wgt>
<wgt id='1509'> +3.0207244e+11 </wgt>
<wgt id='1510'> +2.9794834e+11 </wgt>
<wgt id='1511'> +3.0252491e+11 </wgt>
<wgt id='1512'> +3.0092881e+11 </wgt>
<wgt id='1513'> +3.0112824e+11 </wgt>
<wgt id='1514'> +3.0149549e+11 </wgt>
<wgt id='1515'> +3.0498583e+11 </wgt>
<wgt id='1516'> +3.0091717e+11 </wgt>
<wgt id='1517'> +3.0077562e+11 </wgt>
<wgt id='1518'> +3.0199570e+11 </wgt>
<wgt id='1519'> +2.9931949e+11 </wgt>
<wgt id='1520'> +3.0269617e+11 </wgt>
<wgt id='1521'> +3.0008629e+11 </wgt>
<wgt id='1522'> +3.0197956e+11 </wgt>
<wgt id='1523'> +3.0248777e+11 </wgt>
<wgt id='1524'> +3.0294929e+11 </wgt>
<wgt id='1525'> +3.0204579e+11 </wgt>
<wgt id='1526'> +3.0274333e+11 </wgt>
<wgt id='1527'> +3.0129593e+11 </wgt>
<wgt id='1528'> +3.0022390e+11 </wgt>
<wgt id='1529'> +3.0206950e+11 </wgt>
<wgt id='1530'> +2.9715907e+11 </wgt>
<wgt id='1531'> +3.0411427e+11 </wgt>
<wgt id='1532'> +3.0343489e+11 </wgt>
<wgt id='1533'> +2.9862403e+11 </wgt>
<wgt id='1534'> +3.0247694e+11 </wgt>
<wgt id='1535'> +3.0732822e+11 </wgt>
<wgt id='1536'> +3.0087949e+11 </wgt>
<wgt id='1537'> +3.0566594e+11 </wgt>
<wgt id='1538'> +3.0016389e+11 </wgt>
<wgt id='1539'> +3.0928221e+11 </wgt>
<wgt id='1540'> +3.0516324e+11 </wgt>
<wgt id='1541'> +3.0570876e+11 </wgt>
<wgt id='1542'> +3.0424791e+11 </wgt>
<wgt id='1543'> +3.0589707e+11 </wgt>
<wgt id='1544'> +3.0244022e+11 </wgt>
<wgt id='1545'> +3.0208714e+11 </wgt>
<wgt id='1546'> +3.0031544e+11 </wgt>
<wgt id='1547'> +3.0640862e+11 </wgt>
<wgt id='1548'> +3.0285701e+11 </wgt>
<wgt id='1549'> +3.0057916e+11 </wgt>
<wgt id='1550'> +3.0617819e+11 </wgt>
<wgt id='1551'> +3.0472804e+11 </wgt>
<wgt id='1552'> +3.0418270e+11 </wgt>
<wgt id='1553'> +3.0873425e+11 </wgt>
<wgt id='1554'> +3.0431985e+11 </wgt>
<wgt id='1555'> +3.0509146e+11 </wgt>
<wgt id='1556'> +3.0617653e+11 </wgt>
<wgt id='1557'> +3.0372254e+11 </wgt>
<wgt id='1558'> +3.0446843e+11 </wgt>
<wgt id='1559'> +3.0148841e+11 </wgt>
<wgt id='1560'> +3.0299537e+11 </wgt>
<wgt id='1561'> +3.0199921e+11 </wgt>
<wgt id='1562'> +3.0236575e+11 </wgt>
<wgt id='1563'> +3.0437629e+11 </wgt>
<wgt id='1564'> +3.0382224e+11 </wgt>
<wgt id='1565'> +3.0699058e+11 </wgt>
<wgt id='1566'> +3.0412035e+11 </wgt>
<wgt id='1567'> +3.0556974e+11 </wgt>
<wgt id='1568'> +3.0396806e+11 </wgt>
<wgt id='1569'> +3.0350046e+11 </wgt>
<wgt id='1570'> +3.1067906e+11 </wgt>
<wgt id='1571'> +3.0418664e+11 </wgt>
<wgt id='1572'> +3.0588592e+11 </wgt>
<wgt id='1573'> +3.0833797e+11 </wgt>
<wgt id='1574'> +2.5469575e+11 </wgt>
<wgt id='1575'> +2.5476258e+11 </wgt>
<wgt id='1576'> +2.5462725e+11 </wgt>
<wgt id='1577'> +2.5471370e+11 </wgt>
<wgt id='1578'> +2.5528298e+11 </wgt>
<wgt id='1579'> +2.5549131e+11 </wgt>
<wgt id='1580'> +2.5525734e+11 </wgt>
<wgt id='1581'> +2.5421906e+11 </wgt>
<wgt id='1582'> +2.5395080e+11 </wgt>
<wgt id='1583'> +2.5423394e+11 </wgt>
<wgt id='1584'> +2.5526009e+11 </wgt>
<wgt id='1585'> +2.5494494e+11 </wgt>
<wgt id='1586'> +2.5389254e+11 </wgt>
<wgt id='1587'> +2.5404290e+11 </wgt>
<wgt id='1588'> +2.5360068e+11 </wgt>
<wgt id='1589'> +2.5437488e+11 </wgt>
<wgt id='1590'> +2.5454454e+11 </wgt>
<wgt id='1591'> +2.5477643e+11 </wgt>
<wgt id='1592'> +2.5371819e+11 </wgt>
<wgt id='1593'> +2.5360539e+11 </wgt>
<wgt id='1594'> +2.5575477e+11 </wgt>
<wgt id='1595'> +2.5216208e+11 </wgt>
<wgt id='1596'> +2.5894596e+11 </wgt>
<wgt id='1597'> +2.5651427e+11 </wgt>
<wgt id='1598'> +2.5663778e+11 </wgt>
<wgt id='1599'> +2.5167784e+11 </wgt>
<wgt id='1600'> +2.5961113e+11 </wgt>
<wgt id='1601'> +2.5685559e+11 </wgt>
<wgt id='1602'> +2.5475099e+11 </wgt>
<wgt id='1603'> +2.6866094e+11 </wgt>
<wgt id='1604'> +2.5487295e+11 </wgt>
</rwgt>
</event>
<event>
 9      1 +2.8343000e+11 1.40000100e+03 7.81738600e-03 7.88881100e-02
       21 -1    0    0  504  503 +0.0000000000e+00 +0.0000000000e+00 +2.5064926424e+02 2.5064926424e+02 0.0000000000e+00 0.0000e+00 -1.0000e+00
       21 -1    0    0  503  504 -0.0000000000e+00 -0.0000000000e+00 -1.9549261847e+03 1.9549261847e+03 0.0000000000e+00 0.0000e+00 -1.0000e+00
       45  2    1    2    0    0 +0.0000000000e+00 +0.0000000000e+00 -1.7042769204e+03 2.2055754489e+03 1.4000011569e+03 0.0000e+00 0.0000e+00
       25  2    3    3    0    0 -5.0776137471e+02 +4.6720525896e+02 -9.2662152260e+02 1.1620475755e+03 1.2499901615e+02 0.0000e+00 0.0000e+00
       35  2    3    3    0    0 +5.0776137471e+02 -4.6720525896e+02 -7.7765539785e+02 1.0435278734e+03 9.0000761618e+01 0.0000e+00 0.0000e+00
        5  1    5    5  501    0 +2.1865996106e+02 -2.5448991933e+02 -3.4337621004e+02 4.8010652675e+02 4.2140000000e+00 0.0000e+00 -1.0000e+00
       -5  1    5    5    0  501 +2.8910141365e+02 -2.1271533963e+02 -4.3427918781e+02 5.6342134664e+02 4.2140000000e+00 0.0000e+00 -1.0000e+00
        5  1    4    4  502    0 -1.7969464222e+02 +2.2435018769e+02 -3.1222974126e+02 4.2441529223e+02 4.2140000000e+00 0.0000e+00 -1.0000e+00
       -5  1    4    4    0  502 -3.2806673249e+02 +2.4285507127e+02 -6.1439178134e+02 7.3763228331e+02 4.2140000000e+00 0.0000e+00 -1.0000e+00
<mgrwt>
<rscale>  0 0.14000012E+04</rscale>
<asrwt>0</asrwt>
<pdfrwt beam="1">  1       21 0.38561427E-01 0.14000012E+04</pdfrwt>
<pdfrwt beam="2">  1       21 0.30075786E+00 0.14000012E+04</pdfrwt>
<totfact> 0.12644836E+02</totfact>
</mgrwt>
<rwgt>
<wgt id='1001'> +2.8343000e+11 </wgt>
<wgt id='1002'> +2.8378408e+11 </wgt>
<wgt id='1003'> +2.8378192e+11 </wgt>
<wgt id='1004'> +3.2199582e+11 </wgt>
<wgt id='1005'> +2.8343000e+11 </wgt>
<wgt id='1006'> +2.8343000e+11 </wgt>
<wgt id='1007'> +2.8378408e+11 </wgt>
<wgt id='1008'> +2.8378192e+11 </wgt>
<wgt id='1009'> +3.2199582e+11 </wgt>
<wgt id='1010'> +2.8343000e+11 </wgt>
<wgt id='1011'> +2.8343000e+11 </wgt>
<wgt id='1012'> +2.8378408e+11 </wgt>
<wgt id='1013'> +2.8378192e+11 </wgt>
<wgt id='1014'> +3.2199582e+11 </wgt>
<wgt id='1015'> +2.8343000e+11 </wgt>
<wgt id='1016'> +2.5175143e+11 </wgt>
<wgt id='1017'> +2.5204766e+11 </wgt>
<wgt id='1018'> +2.5204585e+11 </wgt>
<wgt id='1019'> +2.8378192e+11 </wgt>
<wgt id='1020'> +2.5175143e+11 </wgt>
<wgt id='1021'> +2.5175143e+11 </wgt>
<wgt id='1022'> +2.5204766e+11 </wgt>
<wgt id='1023'> +2.5204585e+11 </wgt>
<wgt id='1024'> +2.8378192e+11 </wgt>
<wgt id='1025'> +2.5175143e+11 </wgt>
<wgt id='1026'> +2.5175143e+11 </wgt>
<wgt id='1027'> +2.5204766e+11 </wgt>
<wgt id='1028'> +2.5204585e+11 </wgt>
<wgt id='1029'> +2.8378192e+11 </wgt>
<wgt id='1030'> +2.5175143e+11 </wgt>
<wgt id='1031'> +3.2156971e+11 </wgt>
<wgt id='1032'> +3.2199844e+11 </wgt>
<wgt id='1033'> +3.2199582e+11 </wgt>
<wgt id='1034'> +3.6846361e+11 </wgt>
<wgt id='1035'> +3.2156971e+11 </wgt>
<wgt id='1036'> +3.2156971e+11 </wgt>
<wgt id='1037'> +3.2199844e+11 </wgt>
<wgt id='1038'> +3.2199582e+11 </wgt>
<wgt id='1039'> +3.6846361e+11 </wgt>
<wgt id='1040'> +3.2156971e+11 </wgt>
<wgt id='1041'> +3.2156971e+11 </wgt>
<wgt id='1042'> +3.2199844e+11 </wgt>
<wgt id='1043'> +3.2199582e+11 </wgt>
<wgt id='1044'> +3.6846361e+11 </wgt>
<wgt id='1045'> +3.2156971e+11 </wgt>
<wgt id='1046'> +2.8343000e+11 </wgt>
<wgt id='1047'> +2.8343000e+11 </wgt>
<wgt id='1048'> +2.8343000e+11 </wgt>
<wgt id='1049'> +2.8340257e+11 </wgt>
<wgt id='1050'> +2.8247935e+11 </wgt>
<wgt id='1051'> +2.8343655e+11 </wgt>
<wgt id='1052'> +2.8356366e+11 </wgt>
<wgt id='1053'> +2.8182727e+11 </wgt>
<wgt id='1054'> +2.8540433e+11 </wgt>
<wgt id='1055'> +2.8201222e+11 </wgt>
<wgt id='1056'> +2.8168148e+11 </wgt>
<wgt id='1057'> +2.8250279e+11 </wgt>
<wgt id='1058'> +2.8343051e+11 </wgt>
<wgt id='1059'> +2.8558440e+11 </wgt>
<wgt id='1060'> +2.8286347e+11 </wgt>
<wgt id='1061'> +2.8465566e+11 </wgt>
<wgt id='1062'> +2.8512631e+11 </wgt>
<wgt id='1063'> +2.8465669e+11 </wgt>
<wgt id='1064'> +2.8504533e+11 </wgt>
<wgt id='1065'> +2.8536796e+11 </wgt>
<wgt id='1066'> +2.8240695e+11 </wgt>
<wgt id='1067'> +2.8185125e+11 </wgt>
<wgt id='1068'> +2.8417063e+11 </wgt>
<wgt id='1069'> +2.8250032e+11 </wgt>
<wgt id='1070'> +2.8271504e+11 </wgt>
<wgt id='1071'> +2.8496682e+11 </wgt>
<wgt id='1072'> +2.8144936e+11 </wgt>
<wgt id='1073'> +2.8342906e+11 </wgt>
<wgt id='1074'> +2.8325424e+11 </wgt>
<wgt id='1075'> +2.8137444e+11 </wgt>
<wgt id='1076'> +2.8405879e+11 </wgt>
<wgt id='1077'> +2.8023118e+11 </wgt>
<wgt id='1078'> +2.8183239e+11 </wgt>
<wgt id='1079'> +2.8289308e+11 </wgt>
<wgt id='1080'> +2.8310876e+11 </wgt>
<wgt id='1081'> +2.8295974e+11 </wgt>
<wgt id='1082'> +2.8344150e+11 </wgt>
<wgt id='1083'> +2.8413497e+11 </wgt>
<wgt id='1084'> +2.8385725e+11 </wgt>
<wgt id='1085'> +2.8196908e+11 </wgt>
<wgt id='1086'> +2.8557553e+11 </wgt>
<wgt id='1087'> +2.8417883e+11 </wgt>
<wgt id='1088'> +2.8292498e+11 </wgt>
<wgt id='1089'> +2.8268590e+11 </wgt>
<wgt id='1090'> +2.8429003e+11 </wgt>
<wgt id='1091'> +2.8389093e+11 </wgt>
<wgt id='1092'> +2.8325055e+11 </wgt>
<wgt id='1093'> +2.8312492e+11 </wgt>
<wgt id='1094'> +2.8159456e+11 </wgt>
<wgt id='1095'> +2.8409141e+11 </wgt>
<wgt id='1096'> +2.8361663e+11 </wgt>
<wgt id='1097'> +2.8241918e+11 </wgt>
<wgt id='1098'> +2.8314832e+11 </wgt>
<wgt id='1099'> +2.8359593e+11 </wgt>
<wgt id='1100'> +2.8371755e+11 </wgt>
<wgt id='1101'> +2.8349695e+11 </wgt>
<wgt id='1102'> +2.8333048e+11 </wgt>
<wgt id='1103'> +2.8176366e+11 </wgt>
<wgt id='1104'> +2.8383562e+11 </wgt>
<wgt id='1105'> +2.8356742e+11 </wgt>
<wgt id='1106'> +2.8400187e+11 </wgt>
<wgt id='1107'> +2.8405121e+11 </wgt>
<wgt id='1108'> +2.8307404e+11 </wgt>
<wgt id='1109'> +2.8364981e+11 </wgt>
<wgt id='1110'> +2.8338207e+11 </wgt>
<wgt id='1111'> +2.8448616e+11 </wgt>
<wgt id='1112'> +2.8299000e+11 </wgt>
<wgt id='1113'> +2.8374658e+11 </wgt>
<wgt id='1114'> +2.8309515e+11 </wgt>
<wgt id='1115'> +2.8219988e+11 </wgt>
<wgt id='1116'> +2.8473175e+11 </wgt>
<wgt id='1117'> +2.8324573e+11 </wgt>
<wgt id='1118'> +2.8423339e+11 </wgt>
<wgt id='1119'> +2.8249269e+11 </wgt>
<wgt id='1120'> +2.8234428e+11 </wgt>
<wgt id='1121'> +2.8332710e+11 </wgt>
<wgt id='1122'> +2.8258339e+11 </wgt>
<wgt id='1123'> +2.8335597e+11 </wgt>
<wgt id='1124'> +2.8377733e+11 </wgt>
<wgt id='1125'> +2.8361814e+11 </wgt>
<wgt id='1126'> +2.8362329e+11 </wgt>
<wgt id='1127'> +2.8338599e+11 </wgt>
<wgt id='1128'> +2.8324197e+11 </wgt>
<wgt id='1129'> +2.8300601e+11 </wgt>
<wgt id='1130'> +2.8346934e+11 </wgt>
<wgt id='1131'> +2.8451814e+11 </wgt>
<wgt id='1132'> +2.8316629e+11 </wgt>
<wgt id='1133'> +2.8372114e+11 </wgt>
<wgt id='1134'> +2.8329630e+11 </wgt>
<wgt id='1135'> +2.8351994e+11 </wgt>
<wgt id='1136'> +2.8313137e+11 </wgt>
<wgt id='1137'> +2.8298910e+11 </wgt>
<wgt id='1138'> +2.8364026e+11 </wgt>
<wgt id='1139'> +2.8377162e+11 </wgt>
<wgt id='1140'> +2.8387079e+11 </wgt>
<wgt id='1141'> +2.8294173e+11 </wgt>
<wgt id='1142'> +2.8345967e+11 </wgt>
<wgt id='1143'> +2.8379744e+11 </wgt>
<wgt id='1144'> +2.8333823e+11 </wgt>
<wgt id='1145'> +2.8369748e+11 </wgt>
<wgt id='1146'> +2.8366554e+11 </wgt>
<wgt id='1147'> +2.8353792e+11 </wgt>
<wgt id='1148'> +2.8343000e+11 </wgt>
<wgt id='1149'> +2.8343000e+11 </wgt>
<wgt id='1150'> +2.8156244e+11 </wgt>
<wgt id='1151'> +2.7895270e+11 </wgt>
<wgt id='1152'> +2.8261755e+11 </wgt>
<wgt id='1153'> +2.8538335e+11 </wgt>
<wgt id='1154'> +2.7008469e+11 </wgt>
<wgt id='1155'> +3.0115005e+11 </wgt>
<wgt id='1156'> +2.8706208e+11 </wgt>
<wgt id='1157'> +2.8206750e+11 </wgt>
<wgt id='1158'> +2.8103926e+11 </wgt>
<wgt id='1159'> +2.9159220e+11 </wgt>
<wgt id='1160'> +2.6889360e+11 </wgt>
<wgt id='1161'> +3.0008132e+11 </wgt>
<wgt id='1162'> +2.8153919e+11 </wgt>
<wgt id='1163'> +2.8716736e+11 </wgt>
<wgt id='1164'> +2.6635648e+11 </wgt>
<wgt id='1165'> +2.7628699e+11 </wgt>
<wgt id='1166'> +2.8206139e+11 </wgt>
<wgt id='1167'> +2.7982540e+11 </wgt>
<wgt id='1168'> +2.6572624e+11 </wgt>
<wgt id='1169'> +2.7041013e+11 </wgt>
<wgt id='1170'> +2.8267906e+11 </wgt>
<wgt id='1171'> +2.7258235e+11 </wgt>
<wgt id='1172'> +2.6561033e+11 </wgt>
<wgt id='1173'> +2.8916589e+11 </wgt>
<wgt id='1174'> +2.8163414e+11 </wgt>
<wgt id='1175'> +2.7706932e+11 </wgt>
<wgt id='1176'> +2.8975557e+11 </wgt>
<wgt id='1177'> +2.9072658e+11 </wgt>
<wgt id='1178'> +2.8340015e+11 </wgt>
<wgt id='1179'> +2.9718805e+11 </wgt>
<wgt id='1180'> +2.8909546e+11 </wgt>
<wgt id='1181'> +2.7873923e+11 </wgt>
<wgt id='1182'> +2.8297505e+11 </wgt>
<wgt id='1183'> +2.9328972e+11 </wgt>
<wgt id='1184'> +2.6877717e+11 </wgt>
<wgt id='1185'> +2.9076264e+11 </wgt>
<wgt id='1186'> +2.7470650e+11 </wgt>
<wgt id='1187'> +2.9706658e+11 </wgt>
<wgt id='1188'> +2.9714371e+11 </wgt>
<wgt id='1189'> +2.9206380e+11 </wgt>
<wgt id='1190'> +2.8486750e+11 </wgt>
<wgt id='1191'> +3.0324216e+11 </wgt>
<wgt id='1192'> +2.8697616e+11 </wgt>
<wgt id='1193'> +2.8722603e+11 </wgt>
<wgt id='1194'> +2.7096253e+11 </wgt>
<wgt id='1195'> +2.9297365e+11 </wgt>
<wgt id='1196'> +2.7970047e+11 </wgt>
<wgt id='1197'> +2.9040026e+11 </wgt>
<wgt id='1198'> +2.7654897e+11 </wgt>
<wgt id='1199'> +2.8635885e+11 </wgt>
<wgt id='1200'> +2.8664661e+11 </wgt>
<wgt id='1201'> +2.9248876e+11 </wgt>
<wgt id='1202'> +2.7805780e+11 </wgt>
<wgt id='1203'> +2.8895550e+11 </wgt>
<wgt id='1204'> +2.7236394e+11 </wgt>
<wgt id='1205'> +2.9365812e+11 </wgt>
<wgt id='1206'> +2.7611980e+11 </wgt>
<wgt id='1207'> +2.9833163e+11 </wgt>
<wgt id='1208'> +2.8063125e+11 </wgt>
<wgt id='1209'> +2.7971922e+11 </wgt>
<wgt id='1210'> +2.8386243e+11 </wgt>
<wgt id='1211'> +2.8682141e+11 </wgt>
<wgt id='1212'> +2.7215321e+11 </wgt>
<wgt id='1213'> +2.7831822e+11 </wgt>
<wgt id='1214'> +2.7888631e+11 </wgt>
<wgt id='1215'> +2.9377027e+11 </wgt>
<wgt id='1216'> +2.7713031e+11 </wgt>
<wgt id='1217'> +2.8574666e+11 </wgt>
<wgt id='1218'> +2.7779934e+11 </wgt>
<wgt id='1219'> +2.8457348e+11 </wgt>
<wgt id='1220'> +2.7590833e+11 </wgt>
<wgt id='1221'> +2.6694373e+11 </wgt>
<wgt id='1222'> +2.7785285e+11 </wgt>
<wgt id='1223'> +2.7527809e+11 </wgt>
<wgt id='1224'> +2.8031359e+11 </wgt>
<wgt id='1225'> +2.7946966e+11 </wgt>
<wgt id='1226'> +2.8345768e+11 </wgt>
<wgt id='1227'> +2.6642370e+11 </wgt>
<wgt id='1228'> +2.7201946e+11 </wgt>
<wgt id='1229'> +2.9462987e+11 </wgt>
<wgt id='1230'> +2.8511384e+11 </wgt>
<wgt id='1231'> +2.7628699e+11 </wgt>
<wgt id='1232'> +2.9106422e+11 </wgt>
<wgt id='1233'> +2.8042157e+11 </wgt>
<wgt id='1234'> +2.8716782e+11 </wgt>
<wgt id='1235'> +3.0653461e+11 </wgt>
<wgt id='1236'> +2.8916768e+11 </wgt>
<wgt id='1237'> +2.9566799e+11 </wgt>
<wgt id='1238'> +3.0866502e+11 </wgt>
<wgt id='1239'> +2.9443924e+11 </wgt>
<wgt id='1240'> +2.8089815e+11 </wgt>
<wgt id='1241'> +2.8590225e+11 </wgt>
<wgt id='1242'> +2.8372321e+11 </wgt>
<wgt id='1243'> +2.7580442e+11 </wgt>
<wgt id='1244'> +2.8914588e+11 </wgt>
<wgt id='1245'> +2.6961694e+11 </wgt>
<wgt id='1246'> +3.0275525e+11 </wgt>
<wgt id='1247'> +2.7864070e+11 </wgt>
<wgt id='1248'> +2.7577762e+11 </wgt>
<wgt id='1249'> +2.7572133e+11 </wgt>
<wgt id='1250'> +2.9823942e+11 </wgt>
<wgt id='1251'> +3.1167475e+11 </wgt>
<wgt id='1252'> +2.8699988e+11 </wgt>
<wgt id='1253'> +3.1719920e+11 </wgt>
<wgt id='1254'> +2.9349448e+11 </wgt>
<wgt id='1255'> +3.1971044e+11 </wgt>
<wgt id='1256'> +3.1392855e+11 </wgt>
<wgt id='1257'> +2.8762952e+11 </wgt>
<wgt id='1258'> +2.9565027e+11 </wgt>
<wgt id='1259'> +3.3130176e+11 </wgt>
<wgt id='1260'> +3.5429744e+11 </wgt>
<wgt id='1261'> +3.3948536e+11 </wgt>
<wgt id='1262'> +3.0647391e+11 </wgt>
<wgt id='1263'> +3.1260897e+11 </wgt>
<wgt id='1264'> +3.0465235e+11 </wgt>
<wgt id='1265'> +2.8362960e+11 </wgt>
<wgt id='1266'> +3.0651616e+11 </wgt>
<wgt id='1267'> +4.0604938e+11 </wgt>
<wgt id='1268'> +2.8435393e+11 </wgt>
<wgt id='1269'> +2.7952278e+11 </wgt>
<wgt id='1270'> +3.2839348e+11 </wgt>
<wgt id='1271'> +2.4466695e+11 </wgt>
<wgt id='1272'> +3.0373915e+11 </wgt>
<wgt id='1273'> +2.9511324e+11 </wgt>
<wgt id='1274'> +2.9567568e+11 </wgt>
<wgt id='1275'> +2.8849612e+11 </wgt>
<wgt id='1276'> +3.2219030e+11 </wgt>
<wgt id='1277'> +3.2605986e+11 </wgt>
<wgt id='1278'> +3.1523276e+11 </wgt>
<wgt id='1279'> +2.7503695e+11 </wgt>
<wgt id='1280'> +3.0867812e+11 </wgt>
<wgt id='1281'> +2.8467072e+11 </wgt>
<wgt id='1282'> +2.9103940e+11 </wgt>
<wgt id='1283'> +3.3636656e+11 </wgt>
<wgt id='1284'> +2.9396445e+11 </wgt>
<wgt id='1285'> +2.9486016e+11 </wgt>
<wgt id='1286'> +3.6528643e+11 </wgt>
<wgt id='1287'> +3.6850041e+11 </wgt>
<wgt id='1288'> +3.8909138e+11 </wgt>
<wgt id='1289'> +3.3519134e+11 </wgt>
<wgt id='1290'> +3.1920774e+11 </wgt>
<wgt id='1291'> +2.8478064e+11 </wgt>
<wgt id='1292'> +3.1536737e+11 </wgt>
<wgt id='1293'> +3.0531766e+11 </wgt>
<wgt id='1294'> +3.7058314e+11 </wgt>
<wgt id='1295'> +3.2029766e+11 </wgt>
<wgt id='1296'> +3.7515930e+11 </wgt>
<wgt id='1297'> +2.7799626e+11 </wgt>
<wgt id='1298'> +2.9520288e+11 </wgt>
<wgt id='1299'> +3.1089589e+11 </wgt>
<wgt id='1300'> +2.5385244e+11 </wgt>
<wgt id='1301'> +2.7226169e+11 </wgt>
<wgt id='1302'> +2.7164268e+11 </wgt>
<wgt id='1303'> +3.1578585e+11 </wgt>
<wgt id='1304'> +3.6591690e+11 </wgt>
<wgt id='1305'> +2.9454933e+11 </wgt>
<wgt id='1306'> +3.0670071e+11 </wgt>
<wgt id='1307'> +2.6834965e+11 </wgt>
<wgt id='1308'> +3.4596100e+11 </wgt>
<wgt id='1309'> +3.1734560e+11 </wgt>
<wgt id='1310'> +3.1001753e+11 </wgt>
<wgt id='1311'> +2.8651563e+11 </wgt>
<wgt id='1312'> +3.5990037e+11 </wgt>
<wgt id='1313'> +3.2751971e+11 </wgt>
<wgt id='1314'> +2.7188526e+11 </wgt>
<wgt id='1315'> +2.7990390e+11 </wgt>
<wgt id='1316'> +3.0077367e+11 </wgt>
<wgt id='1317'> +3.5686583e+11 </wgt>
<wgt id='1318'> +2.9010646e+11 </wgt>
<wgt id='1319'> +3.0627901e+11 </wgt>
<wgt id='1320'> +3.3205527e+11 </wgt>
<wgt id='1321'> +3.2143166e+11 </wgt>
<wgt id='1322'> +3.3167749e+11 </wgt>
<wgt id='1323'> +2.6367822e+11 </wgt>
<wgt id='1324'> +3.3033374e+11 </wgt>
<wgt id='1325'> +3.2107605e+11 </wgt>
<wgt id='1326'> +3.2486349e+11 </wgt>
<wgt id='1327'> +3.3814652e+11 </wgt>
<wgt id='1328'> +3.2371279e+11 </wgt>
<wgt id='1329'> +2.8959811e+11 </wgt>
<wgt id='1330'> +2.7358683e+11 </wgt>
<wgt id='1331'> +3.3423646e+11 </wgt>
<wgt id='1332'> +3.2363043e+11 </wgt>
<wgt id='1333'> +3.0518442e+11 </wgt>
<wgt id='1334'> +3.4718123e+11 </wgt>
<wgt id='1335'> +2.7242631e+11 </wgt>
<wgt id='1336'> +3.5698241e+11 </wgt>
<wgt id='1337'> +3.1502589e+11 </wgt>
<wgt id='1338'> +2.7880325e+11 </wgt>
<wgt id='1339'> +2.9454266e+11 </wgt>
<wgt id='1340'> +3.4798784e+11 </wgt>
<wgt id='1341'> +3.9012548e+11 </wgt>
<wgt id='1342'> +2.8125958e+11 </wgt>
<wgt id='1343'> +3.1425542e+11 </wgt>
<wgt id='1344'> +3.3863197e+11 </wgt>
<wgt id='1345'> +2.2474177e+11 </wgt>
<wgt id='1346'> +3.0817849e+11 </wgt>
<wgt id='1347'> +3.0897499e+11 </wgt>
<wgt id='1348'> +2.8369148e+11 </wgt>
<wgt id='1349'> +2.9366394e+11 </wgt>
<wgt id='1350'> +3.5341829e+11 </wgt>
<wgt id='1351'> +2.8653519e+11 </wgt>
<wgt id='1352'> +3.1393205e+11 </wgt>
<wgt id='1353'> +3.1651469e+11 </wgt>
<wgt id='1354'> +3.2086501e+11 </wgt>
<wgt id='1355'> +2.8468181e+11 </wgt>
<wgt id='1356'> +2.8779135e+11 </wgt>
<wgt id='1357'> +2.8868328e+11 </wgt>
<wgt id='1358'> +2.8111193e+11 </wgt>
<wgt id='1359'> +2.8207513e+11 </wgt>
<wgt id='1360'> +2.7825613e+11 </wgt>
<wgt id='1361'> +2.8351727e+11 </wgt>
<wgt id='1362'> +2.9332218e+11 </wgt>
<wgt id='1363'> +2.8276437e+11 </wgt>
<wgt id='1364'> +3.0370367e+11 </wgt>
<wgt id='1365'> +2.8134412e+11 </wgt>
<wgt id='1366'> +2.8426062e+11 </wgt>
<wgt id='1367'> +2.7758572e+11 </wgt>
<wgt id='1368'> +2.9194093e+11 </wgt>
<wgt id='1369'> +2.8745538e+11 </wgt>
<wgt id='1370'> +2.7331640e+11 </wgt>
<wgt id='1371'> +2.7716294e+11 </wgt>
<wgt id='1372'> +2.7676397e+11 </wgt>
<wgt id='1373'> +2.9484450e+11 </wgt>
<wgt id='1374'> +2.8459365e+11 </wgt>
<wgt id='1375'> +2.8713523e+11 </wgt>
<wgt id='1376'> +2.8699614e+11 </wgt>
<wgt id='1377'> +2.8282528e+11 </wgt>
<wgt id='1378'> +2.9111026e+11 </wgt>
<wgt id='1379'> +2.8066091e+11 </wgt>
<wgt id='1380'> +2.8161080e+11 </wgt>
<wgt id='1381'> +2.8842638e+11 </wgt>
<wgt id='1382'> +2.7830372e+11 </wgt>
<wgt id='1383'> +2.8097147e+11 </wgt>
<wgt id='1384'> +2.7304636e+11 </wgt>
<wgt id='1385'> +2.7955965e+11 </wgt>
<wgt id='1386'> +2.8065264e+11 </wgt>
<wgt id='1387'> +2.8699080e+11 </wgt>
<wgt id='1388'> +2.8345889e+11 </wgt>
<wgt id='1389'> +2.7745420e+11 </wgt>
<wgt id='1390'> +2.8784100e+11 </wgt>
<wgt id='1391'> +2.9366159e+11 </wgt>
<wgt id='1392'> +2.7307894e+11 </wgt>
<wgt id='1393'> +2.9005987e+11 </wgt>
<wgt id='1394'> +2.8981484e+11 </wgt>
<wgt id='1395'> +2.7370041e+11 </wgt>
<wgt id='1396'> +2.8432751e+11 </wgt>
<wgt id='1397'> +2.8251703e+11 </wgt>
<wgt id='1398'> +2.9864253e+11 </wgt>
<wgt id='1399'> +2.7989526e+11 </wgt>
<wgt id='1400'> +2.7791219e+11 </wgt>
<wgt id='1401'> +2.7924468e+11 </wgt>
<wgt id='1402'> +2.8662311e+11 </wgt>
<wgt id='1403'> +2.9963927e+11 </wgt>
<wgt id='1404'> +2.8802262e+11 </wgt>
<wgt id='1405'> +3.0089017e+11 </wgt>
<wgt id='1406'> +2.9326617e+11 </wgt>
<wgt id='1407'> +2.9577225e+11 </wgt>
<wgt id='1408'> +3.0167500e+11 </wgt>
<wgt id='1409'> +2.7674610e+11 </wgt>
<wgt id='1410'> +2.8117023e+11 </wgt>
<wgt id='1411'> +2.8384092e+11 </wgt>
<wgt id='1412'> +2.9564947e+11 </wgt>
<wgt id='1413'> +2.9426723e+11 </wgt>
<wgt id='1414'> +2.8851213e+11 </wgt>
<wgt id='1415'> +2.7588971e+11 </wgt>
<wgt id='1416'> +2.8381467e+11 </wgt>
<wgt id='1417'> +2.7760427e+11 </wgt>
<wgt id='1418'> +2.8124515e+11 </wgt>
<wgt id='1419'> +2.8577521e+11 </wgt>
<wgt id='1420'> +2.6741389e+11 </wgt>
<wgt id='1421'> +2.9610668e+11 </wgt>
<wgt id='1422'> +2.7105525e+11 </wgt>
<wgt id='1423'> +2.8482862e+11 </wgt>
<wgt id='1424'> +2.7924377e+11 </wgt>
<wgt id='1425'> +2.8230103e+11 </wgt>
<wgt id='1426'> +2.9198441e+11 </wgt>
<wgt id='1427'> +2.7879514e+11 </wgt>
<wgt id='1428'> +2.7690975e+11 </wgt>
<wgt id='1429'> +2.8400212e+11 </wgt>
<wgt id='1430'> +2.7959275e+11 </wgt>
<wgt id='1431'> +2.8970902e+11 </wgt>
<wgt id='1432'> +2.7370229e+11 </wgt>
<wgt id='1433'> +2.7415009e+11 </wgt>
<wgt id='1434'> +2.8259652e+11 </wgt>
<wgt id='1435'> +2.8879107e+11 </wgt>
<wgt id='1436'> +2.8661320e+11 </wgt>
<wgt id='1437'> +2.8305647e+11 </wgt>
<wgt id='1438'> +2.8316713e+11 </wgt>
<wgt id='1439'> +2.9459991e+11 </wgt>
<wgt id='1440'> +2.8376685e+11 </wgt>
<wgt id='1441'> +2.8070231e+11 </wgt>
<wgt id='1442'> +2.8419811e+11 </wgt>
<wgt id='1443'> +2.7514543e+11 </wgt>
<wgt id='1444'> +2.9708961e+11 </wgt>
<wgt id='1445'> +2.7796460e+11 </wgt>
<wgt id='1446'> +3.0170703e+11 </wgt>
<wgt id='1447'> +2.9247485e+11 </wgt>
<wgt id='1448'> +2.8870319e+11 </wgt>
<wgt id='1449'> +2.8482818e+11 </wgt>
<wgt id='1450'> +2.8006194e+11 </wgt>
<wgt id='1451'> +2.7734395e+11 </wgt>
<wgt id='1452'> +2.9016314e+11 </wgt>
<wgt id='1453'> +2.9639314e+11 </wgt>
<wgt id='1454'> +2.7416635e+11 </wgt>
<wgt id='1455'> +2.8428308e+11 </wgt>
<wgt id='1456'> +2.8045664e+11 </wgt>
<wgt id='1457'> +2.8768865e+11 </wgt>
<wgt id='1458'> +2.9638071e+11 </wgt>
<wgt id='1459'> +3.1432293e+11 </wgt>
<wgt id='1460'> +3.0817243e+11 </wgt>
<wgt id='1461'> +3.8105573e+11 </wgt>
<wgt id='1462'> +3.1348973e+11 </wgt>
<wgt id='1463'> +3.1369867e+11 </wgt>
<wgt id='1464'> +3.1322173e+11 </wgt>
<wgt id='1465'> +3.1356708e+11 </wgt>
<wgt id='1466'> +3.1341908e+11 </wgt>
<wgt id='1467'> +3.1356679e+11 </wgt>
<wgt id='1468'> +3.1336328e+11 </wgt>
<wgt id='1469'> +3.1304314e+11 </wgt>
<wgt id='1470'> +3.1385238e+11 </wgt>
<wgt id='1471'> +3.1393599e+11 </wgt>
<wgt id='1472'> +3.1303006e+11 </wgt>
<wgt id='1473'> +3.1479214e+11 </wgt>
<wgt id='1474'> +3.1223864e+11 </wgt>
<wgt id='1475'> +3.1468975e+11 </wgt>
<wgt id='1476'> +3.1263939e+11 </wgt>
<wgt id='1477'> +3.1292847e+11 </wgt>
<wgt id='1478'> +3.1480142e+11 </wgt>
<wgt id='1479'> +3.1329736e+11 </wgt>
<wgt id='1480'> +3.1363297e+11 </wgt>
<wgt id='1481'> +3.1262698e+11 </wgt>
<wgt id='1482'> +3.1466180e+11 </wgt>
<wgt id='1483'> +3.1349009e+11 </wgt>
<wgt id='1484'> +3.1350008e+11 </wgt>
<wgt id='1485'> +3.1366570e+11 </wgt>
<wgt id='1486'> +3.1306505e+11 </wgt>
<wgt id='1487'> +3.1372960e+11 </wgt>
<wgt id='1488'> +3.1318214e+11 </wgt>
<wgt id='1489'> +3.1307466e+11 </wgt>
<wgt id='1490'> +3.1461590e+11 </wgt>
<wgt id='1491'> +3.1912559e+11 </wgt>
<wgt id='1492'> +3.1035164e+11 </wgt>
<wgt id='1493'> +3.0945872e+11 </wgt>
<wgt id='1494'> +3.2612799e+11 </wgt>
<wgt id='1495'> +3.1230498e+11 </wgt>
<wgt id='1496'> +3.1476431e+11 </wgt>
<wgt id='1497'> +3.1377685e+11 </wgt>
<wgt id='1498'> +3.1309923e+11 </wgt>
<wgt id='1499'> +3.1616815e+11 </wgt>
<wgt id='1500'> +3.1203209e+11 </wgt>
<wgt id='1501'> +3.1345909e+11 </wgt>
<wgt id='1502'> +3.1361082e+11 </wgt>
<wgt id='1503'> +3.0621101e+11 </wgt>
<wgt id='1504'> +3.2204029e+11 </wgt>
<wgt id='1505'> +3.1356533e+11 </wgt>
<wgt id='1506'> +3.1342230e+11 </wgt>
<wgt id='1507'> +3.2058992e+11 </wgt>
<wgt id='1508'> +3.0005058e+11 </wgt>
<wgt id='1509'> +3.1468666e+11 </wgt>
<wgt id='1510'> +3.0829679e+11 </wgt>
<wgt id='1511'> +3.1457656e+11 </wgt>
<wgt id='1512'> +3.1358625e+11 </wgt>
<wgt id='1513'> +3.1302044e+11 </wgt>
<wgt id='1514'> +3.1402175e+11 </wgt>
<wgt id='1515'> +3.2073612e+11 </wgt>
<wgt id='1516'> +3.1075580e+11 </wgt>
<wgt id='1517'> +3.1250601e+11 </wgt>
<wgt id='1518'> +3.1532327e+11 </wgt>
<wgt id='1519'> +3.1088002e+11 </wgt>
<wgt id='1520'> +3.1533071e+11 </wgt>
<wgt id='1521'> +3.1141571e+11 </wgt>
<wgt id='1522'> +3.1461530e+11 </wgt>
<wgt id='1523'> +3.1510173e+11 </wgt>
<wgt id='1524'> +3.1528930e+11 </wgt>
<wgt id='1525'> +3.1366410e+11 </wgt>
<wgt id='1526'> +3.1595276e+11 </wgt>
<wgt id='1527'> +3.1348973e+11 </wgt>
<wgt id='1528'> +3.0999348e+11 </wgt>
<wgt id='1529'> +3.1712476e+11 </wgt>
<wgt id='1530'> +3.0241718e+11 </wgt>
<wgt id='1531'> +3.2646256e+11 </wgt>
<wgt id='1532'> +3.3039732e+11 </wgt>
<wgt id='1533'> +3.2002023e+11 </wgt>
<wgt id='1534'> +3.2374455e+11 </wgt>
<wgt id='1535'> +3.3087707e+11 </wgt>
<wgt id='1536'> +3.2009526e+11 </wgt>
<wgt id='1537'> +3.3271813e+11 </wgt>
<wgt id='1538'> +3.2112830e+11 </wgt>
<wgt id='1539'> +3.3218100e+11 </wgt>
<wgt id='1540'> +3.3108048e+11 </wgt>
<wgt id='1541'> +3.2970523e+11 </wgt>
<wgt id='1542'> +3.2781505e+11 </wgt>
<wgt id='1543'> +3.3021169e+11 </wgt>
<wgt id='1544'> +3.2409665e+11 </wgt>
<wgt id='1545'> +3.2465689e+11 </wgt>
<wgt id='1546'> +3.2303236e+11 </wgt>
<wgt id='1547'> +3.2860518e+11 </wgt>
<wgt id='1548'> +3.2639362e+11 </wgt>
<wgt id='1549'> +3.2290401e+11 </wgt>
<wgt id='1550'> +3.3021706e+11 </wgt>
<wgt id='1551'> +3.2735887e+11 </wgt>
<wgt id='1552'> +3.2735454e+11 </wgt>
<wgt id='1553'> +3.3767878e+11 </wgt>
<wgt id='1554'> +3.2753185e+11 </wgt>
<wgt id='1555'> +3.2722730e+11 </wgt>
<wgt id='1556'> +3.2880786e+11 </wgt>
<wgt id='1557'> +3.2660199e+11 </wgt>
<wgt id='1558'> +3.2650163e+11 </wgt>
<wgt id='1559'> +3.2467013e+11 </wgt>
<wgt id='1560'> +3.2676394e+11 </wgt>
<wgt id='1561'> +3.2568342e+11 </wgt>
<wgt id='1562'> +3.2257315e+11 </wgt>
<wgt id='1563'> +3.2700857e+11 </wgt>
<wgt id='1564'> +3.2603488e+11 </wgt>
<wgt id='1565'> +3.3183461e+11 </wgt>
<wgt id='1566'> +3.2639420e+11 </wgt>
<wgt id='1567'> +3.2369728e+11 </wgt>
<wgt id='1568'> +3.2622097e+11 </wgt>
<wgt id='1569'> +3.2581368e+11 </wgt>
<wgt id='1570'> +3.3423733e+11 </wgt>
<wgt id='1571'> +3.2597808e+11 </wgt>
<wgt id='1572'> +3.2583189e+11 </wgt>
<wgt id='1573'> +3.3399907e+11 </wgt>
<wgt id='1574'> +2.3756071e+11 </wgt>
<wgt id='1575'> +2.3761950e+11 </wgt>
<wgt id='1576'> +2.3749095e+11 </wgt>
<wgt id='1577'> +2.3757790e+11 </wgt>
<wgt id='1578'> +2.3810817e+11 </wgt>
<wgt id='1579'> +2.3826085e+11 </wgt>
<wgt id='1580'> +2.3802111e+11 </wgt>
<wgt id='1581'> +2.3729891e+11 </wgt>
<wgt id='1582'> +2.3707793e+11 </wgt>
<wgt id='1583'> +2.3705266e+11 </wgt>
<wgt id='1584'> +2.3811403e+11 </wgt>
<wgt id='1585'> +2.3793525e+11 </wgt>
<wgt id='1586'> +2.3704764e+11 </wgt>
<wgt id='1587'> +2.3707819e+11 </wgt>
<wgt id='1588'> +2.3670743e+11 </wgt>
<wgt id='1589'> +2.3713419e+11 </wgt>
<wgt id='1590'> +2.3741816e+11 </wgt>
<wgt id='1591'> +2.3763979e+11 </wgt>
<wgt id='1592'> +2.3668867e+11 </wgt>
<wgt id='1593'> +2.3626279e+11 </wgt>
<wgt id='1594'> +2.3888260e+11 </wgt>
<wgt id='1595'> +2.3478823e+11 </wgt>
<wgt id='1596'> +2.4240471e+11 </wgt>
<wgt id='1597'> +2.3935012e+11 </wgt>
<wgt id='1598'> +2.3933054e+11 </wgt>
<wgt id='1599'> +2.3433702e+11 </wgt>
<wgt id='1600'> +2.4283931e+11 </wgt>
<wgt id='1601'> +2.3968870e+11 </wgt>
<wgt id='1602'> +2.3780349e+11 </wgt>
<wgt id='1603'> +2.5517293e+11 </wgt>
<wgt id='1604'> +2.3736203e+11 </wgt>
</rwgt>
</event>
<event>
 9      1 +2.8343000e+11 1.40000000e+03 7.81738600e-03 7.88881100e-02
       21 -1    0    0  504  503 +0.0000000000e+00 +0.0000000000e+00 +1.3396197187e+03 1.3396197187e+03 0.0000000000e+00 0.0000e+00 -1.0000e+00
       21 -1    0    0  503  504 -0.0000000000e+00 -0.0000000000e+00 -3.6577570376e+02 3.6577570376e+02 0.0000000000e+00 0.0000e+00 -1.0000e+00
       45  2    1    2    0    0 -1.1368683772e-13 +0.0000000000e+00 +9.7384401491e+02 1.7053954224e+03 1.4000004934e+03 0.0000e+00 0.0000e+00
       25  2    3    3    0    0 -5.0019416215e+02 +4.7120609082e+02 +3.9510121052e+02 8.0247076761e+02 1.2499994578e+02 0.0000e+00 0.0000e+00
       35  2    3    3    0    0 +5.0019416215e+02 -4.7120609082e+02 +5.7874280438e+02 9.0292465481e+02 9.0001770936e+01 0.0000e+00 0.0000e+00
        5  1    5    5  501    0 +9.3683634475e+01 -1.1910831790e+02 +9.0536943627e+01 1.7657324463e+02 4.2140000000e+00 0.0000e+00 -1.0000e+00
       -5  1    5    5    0  501 +4.0651052768e+02 -3.5209777292e+02 +4.8820586076e+02 7.2635141018e+02 4.2140000000e+00 0.0000e+00 1.0000e+00
        5  1    4    4  502    0 -2.7644006814e-01 +3.7880033899e-02 -5.7228442517e+00 7.1124254890e+00 4.2140000000e+00 0.0000e+00 1.0000e+00
       -5  1    4    4    0  502 -4.9991772208e+02 +4.7116821078e+02 +4.0082405478e+02 7.9535834212e+02 4.2140000000e+00 0.0000e+00 1.0000e+00
<mgrwt>
<rscale>  0 0.14000005E+04</rscale>
<asrwt>0</asrwt>
<pdfrwt beam="1">  1       21 0.20609534E+00 0.14000005E+04</pdfrwt>
<pdfrwt beam="2">  1       21 0.56273186E-01 0.14000005E+04</pdfrwt>
<totfact> 0.24522252E+02</totfact>
</mgrwt>
<rwgt>
<wgt id='1001'> +2.8343000e+11 </wgt>
<wgt id='1002'> +2.8421739e+11 </wgt>
<wgt id='1003'> +2.8408433e+11 </wgt>
<wgt id='1004'> +3.1989879e+11 </wgt>
<wgt id='1005'> +2.8343000e+11 </wgt>
<wgt id='1006'> +2.8343000e+11 </wgt>
<wgt id='1007'> +2.8421739e+11 </wgt>
<wgt id='1008'> +2.8408433e+11 </wgt>
<wgt id='1009'> +3.1989879e+11 </wgt>
<wgt id='1010'> +2.8343000e+11 </wgt>
<wgt id='1011'> +2.8343000e+11 </wgt>
<wgt id='1012'> +2.8421739e+11 </wgt>
<wgt id='1013'> +2.8408433e+11 </wgt>
<wgt id='1014'> +3.1989879e+11 </wgt>
<wgt id='1015'> +2.8343000e+11 </wgt>
<wgt id='1016'> +2.5361210e+11 </wgt>
<wgt id='1017'> +2.5427507e+11 </wgt>
<wgt id='1018'> +2.5416304e+11 </wgt>
<wgt id='1019'> +2.8408433e+11 </wgt>
<wgt id='1020'> +2.5361210e+11 </wgt>
<wgt id='1021'> +2.5361210e+11 </wgt>
<wgt id='1022'> +2.5427507e+11 </wgt>
<wgt id='1023'> +2.5416304e+11 </wgt>
<wgt id='1024'> +2.8408433e+11 </wgt>
<wgt id='1025'> +2.5361210e+11 </wgt>
<wgt id='1026'> +2.5361210e+11 </wgt>
<wgt id='1027'> +2.5427507e+11 </wgt>
<wgt id='1028'> +2.5416304e+11 </wgt>
<wgt id='1029'> +2.8408433e+11 </wgt>
<wgt id='1030'> +2.5361210e+11 </wgt>
<wgt id='1031'> +3.1911122e+11 </wgt>
<wgt id='1032'> +3.2005897e+11 </wgt>
<wgt id='1033'> +3.1989879e+11 </wgt>
<wgt id='1034'> +3.6319192e+11 </wgt>
<wgt id='1035'> +3.1911122e+11 </wgt>
<wgt id='1036'> +3.1911122e+11 </wgt>
<wgt id='1037'> +3.2005897e+11 </wgt>
<wgt id='1038'> +3.1989879e+11 </wgt>
<wgt id='1039'> +3.6319192e+11 </wgt>
<wgt id='1040'> +3.1911122e+11 </wgt>
<wgt id='1041'> +3.1911122e+11 </wgt>
<wgt id='1042'> +3.2005897e+11 </wgt>
<wgt id='1043'> +3.1989879e+11 </wgt>
<wgt id='1044'> +3.6319192e+11 </wgt>
<wgt id='1045'> +3.1911122e+11 </wgt>
<wgt id='1046'> +2.8343000e+11 </wgt>
<wgt id='1047'> +2.8343000e+11 </wgt>
<wgt id='1048'> +2.8343000e+11 </wgt>
<wgt id='1049'> +2.8298980e+11 </wgt>
<wgt id='1050'> +2.8319325e+11 </wgt>
<wgt id='1051'> +2.8336909e+11 </wgt>
<wgt id='1052'> +2.8418563e+11 </wgt>
<wgt id='1053'> +2.8158058e+11 </wgt>
<wgt id='1054'> +2.8380067e+11 </wgt>
<wgt id='1055'> +2.8212285e+11 </wgt>
<wgt id='1056'> +2.8209522e+11 </wgt>
<wgt id='1057'> +2.8282209e+11 </wgt>
<wgt id='1058'> +2.8261560e+11 </wgt>
<wgt id='1059'> +2.8549359e+11 </wgt>
<wgt id='1060'> +2.8373979e+11 </wgt>
<wgt id='1061'> +2.8397663e+11 </wgt>
<wgt id='1062'> +2.8429096e+11 </wgt>
<wgt id='1063'> +2.8470224e+11 </wgt>
<wgt id='1064'> +2.8407430e+11 </wgt>
<wgt id='1065'> +2.8480085e+11 </wgt>
<wgt id='1066'> +2.8147290e+11 </wgt>
<wgt id='1067'> +2.8235216e+11 </wgt>
<wgt id='1068'> +2.8381411e+11 </wgt>
<wgt id='1069'> +2.8253864e+11 </wgt>
<wgt id='1070'> +2.8408770e+11 </wgt>
<wgt id='1071'> +2.8265625e+11 </wgt>
<wgt id='1072'> +2.8350724e+11 </wgt>
<wgt id='1073'> +2.8244202e+11 </wgt>
<wgt id='1074'> +2.8256317e+11 </wgt>
<wgt id='1075'> +2.8394676e+11 </wgt>
<wgt id='1076'> +2.8163223e+11 </wgt>
<wgt id='1077'> +2.8202387e+11 </wgt>
<wgt id='1078'> +2.8409323e+11 </wgt>
<wgt id='1079'> +2.8223365e+11 </wgt>
<wgt id='1080'> +2.8304264e+11 </wgt>
<wgt id='1081'> +2.8301871e+11 </wgt>
<wgt id='1082'> +2.8231274e+11 </wgt>
<wgt id='1083'> +2.8443247e+11 </wgt>
<wgt id='1084'> +2.8401691e+11 </wgt>
<wgt id='1085'> +2.8267804e+11 </wgt>
<wgt id='1086'> +2.8342761e+11 </wgt>
<wgt id='1087'> +2.8343489e+11 </wgt>
<wgt id='1088'> +2.8293825e+11 </wgt>
<wgt id='1089'> +2.8248723e+11 </wgt>
<wgt id='1090'> +2.8404472e+11 </wgt>
<wgt id='1091'> +2.8360753e+11 </wgt>
<wgt id='1092'> +2.8362421e+11 </wgt>
<wgt id='1093'> +2.8349549e+11 </wgt>
<wgt id='1094'> +2.8226015e+11 </wgt>
<wgt id='1095'> +2.8366936e+11 </wgt>
<wgt id='1096'> +2.8340966e+11 </wgt>
<wgt id='1097'> +2.8283683e+11 </wgt>
<wgt id='1098'> +2.8319442e+11 </wgt>
<wgt id='1099'> +2.8323297e+11 </wgt>
<wgt id='1100'> +2.8403172e+11 </wgt>
<wgt id='1101'> +2.8349296e+11 </wgt>
<wgt id='1102'> +2.8333744e+11 </wgt>
<wgt id='1103'> +2.8271510e+11 </wgt>
<wgt id='1104'> +2.8329516e+11 </wgt>
<wgt id='1105'> +2.8351072e+11 </wgt>
<wgt id='1106'> +2.8379009e+11 </wgt>
<wgt id='1107'> +2.8365794e+11 </wgt>
<wgt id='1108'> +2.8321601e+11 </wgt>
<wgt id='1109'> +2.8328388e+11 </wgt>
<wgt id='1110'> +2.8364416e+11 </wgt>
<wgt id='1111'> +2.8369806e+11 </wgt>
<wgt id='1112'> +2.8333747e+11 </wgt>
<wgt id='1113'> +2.8377717e+11 </wgt>
<wgt id='1114'> +2.8314003e+11 </wgt>
<wgt id='1115'> +2.8297169e+11 </wgt>
<wgt id='1116'> +2.8410435e+11 </wgt>
<wgt id='1117'> +2.8335675e+11 </wgt>
<wgt id='1118'> +2.8375573e+11 </wgt>
<wgt id='1119'> +2.8303211e+11 </wgt>
<wgt id='1120'> +2.8305952e+11 </wgt>
<wgt id='1121'> +2.8349984e+11 </wgt>
<wgt id='1122'> +2.8306683e+11 </wgt>
<wgt id='1123'> +2.8337434e+11 </wgt>
<wgt id='1124'> +2.8348066e+11 </wgt>
<wgt id='1125'> +2.8363200e+11 </wgt>
<wgt id='1126'> +2.8355781e+11 </wgt>
<wgt id='1127'> +2.8328587e+11 </wgt>
<wgt id='1128'> +2.8337134e+11 </wgt>
<wgt id='1129'> +2.8325883e+11 </wgt>
<wgt id='1130'> +2.8345875e+11 </wgt>
<wgt id='1131'> +2.8395856e+11 </wgt>
<wgt id='1132'> +2.8331860e+11 </wgt>
<wgt id='1133'> +2.8357350e+11 </wgt>
<wgt id='1134'> +2.8340471e+11 </wgt>
<wgt id='1135'> +2.8346462e+11 </wgt>
<wgt id='1136'> +2.8331223e+11 </wgt>
<wgt id='1137'> +2.8320576e+11 </wgt>
<wgt id='1138'> +2.8358040e+11 </wgt>
<wgt id='1139'> +2.8353635e+11 </wgt>
<wgt id='1140'> +2.8370655e+11 </wgt>
<wgt id='1141'> +2.8317309e+11 </wgt>
<wgt id='1142'> +2.8348521e+11 </wgt>
<wgt id='1143'> +2.8362825e+11 </wgt>
<wgt id='1144'> +2.8332747e+11 </wgt>
<wgt id='1145'> +2.8359308e+11 </wgt>
<wgt id='1146'> +2.8350179e+11 </wgt>
<wgt id='1147'> +2.8349159e+11 </wgt>
<wgt id='1148'> +2.8343000e+11 </wgt>
<wgt id='1149'> +2.8343000e+11 </wgt>
<wgt id='1150'> +2.9664395e+11 </wgt>
<wgt id='1151'> +2.7642271e+11 </wgt>
<wgt id='1152'> +2.7285475e+11 </wgt>
<wgt id='1153'> +2.8560442e+11 </wgt>
<wgt id='1154'> +2.7973223e+11 </wgt>
<wgt id='1155'> +2.9589793e+11 </wgt>
<wgt id='1156'> +2.7960942e+11 </wgt>
<wgt id='1157'> +2.7555773e+11 </wgt>
<wgt id='1158'> +2.7705024e+11 </wgt>
<wgt id='1159'> +2.9758414e+11 </wgt>
<wgt id='1160'> +2.8559072e+11 </wgt>
<wgt id='1161'> +2.9158057e+11 </wgt>
<wgt id='1162'> +2.8664643e+11 </wgt>
<wgt id='1163'> +2.8707646e+11 </wgt>
<wgt id='1164'> +2.7437431e+11 </wgt>
<wgt id='1165'> +2.7755524e+11 </wgt>
<wgt id='1166'> +2.8328919e+11 </wgt>
<wgt id='1167'> +2.7828733e+11 </wgt>
<wgt id='1168'> +2.7348215e+11 </wgt>
<wgt id='1169'> +2.7628420e+11 </wgt>
<wgt id='1170'> +2.8473588e+11 </wgt>
<wgt id='1171'> +2.7350565e+11 </wgt>
<wgt id='1172'> +2.7346252e+11 </wgt>
<wgt id='1173'> +2.8590743e+11 </wgt>
<wgt id='1174'> +2.7678296e+11 </wgt>
<wgt id='1175'> +2.7901246e+11 </wgt>
<wgt id='1176'> +2.8750540e+11 </wgt>
<wgt id='1177'> +2.7911945e+11 </wgt>
<wgt id='1178'> +2.8536637e+11 </wgt>
<wgt id='1179'> +2.8658460e+11 </wgt>
<wgt id='1180'> +2.7870774e+11 </wgt>
<wgt id='1181'> +2.9427505e+11 </wgt>
<wgt id='1182'> +2.8083478e+11 </wgt>
<wgt id='1183'> +2.8867828e+11 </wgt>
<wgt id='1184'> +2.7700002e+11 </wgt>
<wgt id='1185'> +2.8971287e+11 </wgt>
<wgt id='1186'> +2.7871499e+11 </wgt>
<wgt id='1187'> +2.8519827e+11 </wgt>
<wgt id='1188'> +2.9089607e+11 </wgt>
<wgt id='1189'> +2.8186115e+11 </wgt>
<wgt id='1190'> +2.8019118e+11 </wgt>
<wgt id='1191'> +2.9041190e+11 </wgt>
<wgt id='1192'> +2.8769298e+11 </wgt>
<wgt id='1193'> +2.8907172e+11 </wgt>
<wgt id='1194'> +2.7837045e+11 </wgt>
<wgt id='1195'> +2.8693472e+11 </wgt>
<wgt id='1196'> +2.9095931e+11 </wgt>
<wgt id='1197'> +2.9053417e+11 </wgt>
<wgt id='1198'> +2.8701907e+11 </wgt>
<wgt id='1199'> +2.8715799e+11 </wgt>
<wgt id='1200'> +2.9083930e+11 </wgt>
<wgt id='1201'> +2.8226347e+11 </wgt>
<wgt id='1202'> +2.8501248e+11 </wgt>
<wgt id='1203'> +2.8460726e+11 </wgt>
<wgt id='1204'> +2.8028513e+11 </wgt>
<wgt id='1205'> +2.8494451e+11 </wgt>
<wgt id='1206'> +2.8097241e+11 </wgt>
<wgt id='1207'> +2.9144421e+11 </wgt>
<wgt id='1208'> +2.7105428e+11 </wgt>
<wgt id='1209'> +2.8523036e+11 </wgt>
<wgt id='1210'> +2.8729377e+11 </wgt>
<wgt id='1211'> +2.8111906e+11 </wgt>
<wgt id='1212'> +2.8294328e+11 </wgt>
<wgt id='1213'> +2.8639348e+11 </wgt>
<wgt id='1214'> +2.7921191e+11 </wgt>
<wgt id='1215'> +2.7960216e+11 </wgt>
<wgt id='1216'> +2.7621232e+11 </wgt>
<wgt id='1217'> +2.8075638e+11 </wgt>
<wgt id='1218'> +2.8508094e+11 </wgt>
<wgt id='1219'> +2.9341039e+11 </wgt>
<wgt id='1220'> +2.8091013e+11 </wgt>
<wgt id='1221'> +2.7694003e+11 </wgt>
<wgt id='1222'> +2.7879939e+11 </wgt>
<wgt id='1223'> +2.7396510e+11 </wgt>
<wgt id='1224'> +2.8223833e+11 </wgt>
<wgt id='1225'> +2.8306774e+11 </wgt>
<wgt id='1226'> +2.8534600e+11 </wgt>
<wgt id='1227'> +2.8124874e+11 </wgt>
<wgt id='1228'> +2.8250164e+11 </wgt>
<wgt id='1229'> +2.9976981e+11 </wgt>
<wgt id='1230'> +2.8795588e+11 </wgt>
<wgt id='1231'> +2.7755524e+11 </wgt>
<wgt id='1232'> +2.8790240e+11 </wgt>
<wgt id='1233'> +2.7661359e+11 </wgt>
<wgt id='1234'> +2.7861829e+11 </wgt>
<wgt id='1235'> +3.0032874e+11 </wgt>
<wgt id='1236'> +2.7937767e+11 </wgt>
<wgt id='1237'> +2.9062408e+11 </wgt>
<wgt id='1238'> +2.7970609e+11 </wgt>
<wgt id='1239'> +2.8625367e+11 </wgt>
<wgt id='1240'> +2.7526784e+11 </wgt>
<wgt id='1241'> +2.8888790e+11 </wgt>
<wgt id='1242'> +2.8074982e+11 </wgt>
<wgt id='1243'> +2.8398168e+11 </wgt>
<wgt id='1244'> +2.9093931e+11 </wgt>
<wgt id='1245'> +2.7531052e+11 </wgt>
<wgt id='1246'> +3.0377022e+11 </wgt>
<wgt id='1247'> +2.8138108e+11 </wgt>
<wgt id='1248'> +2.7341446e+11 </wgt>
<wgt id='1249'> +2.7548525e+11 </wgt>
<wgt id='1250'> +2.9427410e+11 </wgt>
<wgt id='1251'> +3.0306017e+11 </wgt>
<wgt id='1252'> +2.8862181e+11 </wgt>
<wgt id='1253'> +2.9460827e+11 </wgt>
<wgt id='1254'> +2.9034775e+11 </wgt>
<wgt id='1255'> +3.0549507e+11 </wgt>
<wgt id='1256'> +3.0511867e+11 </wgt>
<wgt id='1257'> +3.0214051e+11 </wgt>
<wgt id='1258'> +2.9223692e+11 </wgt>
<wgt id='1259'> +3.0753734e+11 </wgt>
<wgt id='1260'> +3.3004248e+11 </wgt>
<wgt id='1261'> +3.1639742e+11 </wgt>
<wgt id='1262'> +2.9586243e+11 </wgt>
<wgt id='1263'> +3.0065357e+11 </wgt>
<wgt id='1264'> +3.0339862e+11 </wgt>
<wgt id='1265'> +2.9281914e+11 </wgt>
<wgt id='1266'> +3.0567415e+11 </wgt>
<wgt id='1267'> +3.5291211e+11 </wgt>
<wgt id='1268'> +2.8858247e+11 </wgt>
<wgt id='1269'> +2.8679796e+11 </wgt>
<wgt id='1270'> +3.0771515e+11 </wgt>
<wgt id='1271'> +2.6533169e+11 </wgt>
<wgt id='1272'> +2.9427162e+11 </wgt>
<wgt id='1273'> +2.9120849e+11 </wgt>
<wgt id='1274'> +2.8748225e+11 </wgt>
<wgt id='1275'> +2.9320915e+11 </wgt>
<wgt id='1276'> +3.0549978e+11 </wgt>
<wgt id='1277'> +3.0083591e+11 </wgt>
<wgt id='1278'> +3.0096826e+11 </wgt>
<wgt id='1279'> +2.7934948e+11 </wgt>
<wgt id='1280'> +2.8608254e+11 </wgt>
<wgt id='1281'> +2.8552508e+11 </wgt>
<wgt id='1282'> +2.9499118e+11 </wgt>
<wgt id='1283'> +3.1388771e+11 </wgt>
<wgt id='1284'> +3.0728239e+11 </wgt>
<wgt id='1285'> +3.0823286e+11 </wgt>
<wgt id='1286'> +3.3235766e+11 </wgt>
<wgt id='1287'> +3.1406054e+11 </wgt>
<wgt id='1288'> +3.3962997e+11 </wgt>
<wgt id='1289'> +3.1678161e+11 </wgt>
<wgt id='1290'> +3.1359499e+11 </wgt>
<wgt id='1291'> +2.7922933e+11 </wgt>
<wgt id='1292'> +3.0489448e+11 </wgt>
<wgt id='1293'> +3.0413581e+11 </wgt>
<wgt id='1294'> +3.2777580e+11 </wgt>
<wgt id='1295'> +3.1180982e+11 </wgt>
<wgt id='1296'> +3.3399389e+11 </wgt>
<wgt id='1297'> +2.8961509e+11 </wgt>
<wgt id='1298'> +2.9006392e+11 </wgt>
<wgt id='1299'> +3.0564721e+11 </wgt>
<wgt id='1300'> +2.8036314e+11 </wgt>
<wgt id='1301'> +2.8008672e+11 </wgt>
<wgt id='1302'> +2.8215074e+11 </wgt>
<wgt id='1303'> +3.0552047e+11 </wgt>
<wgt id='1304'> +3.3087447e+11 </wgt>
<wgt id='1305'> +2.9845627e+11 </wgt>
<wgt id='1306'> +3.0667064e+11 </wgt>
<wgt id='1307'> +2.8533689e+11 </wgt>
<wgt id='1308'> +3.3281142e+11 </wgt>
<wgt id='1309'> +3.0266679e+11 </wgt>
<wgt id='1310'> +3.0450874e+11 </wgt>
<wgt id='1311'> +2.9691689e+11 </wgt>
<wgt id='1312'> +3.1880845e+11 </wgt>
<wgt id='1313'> +3.0624184e+11 </wgt>
<wgt id='1314'> +2.9206062e+11 </wgt>
<wgt id='1315'> +2.8835593e+11 </wgt>
<wgt id='1316'> +3.0031519e+11 </wgt>
<wgt id='1317'> +3.1614769e+11 </wgt>
<wgt id='1318'> +2.9205227e+11 </wgt>
<wgt id='1319'> +2.9726191e+11 </wgt>
<wgt id='1320'> +3.1960126e+11 </wgt>
<wgt id='1321'> +3.0495142e+11 </wgt>
<wgt id='1322'> +3.1550069e+11 </wgt>
<wgt id='1323'> +2.8701027e+11 </wgt>
<wgt id='1324'> +3.1110389e+11 </wgt>
<wgt id='1325'> +3.1394887e+11 </wgt>
<wgt id='1326'> +3.1081303e+11 </wgt>
<wgt id='1327'> +3.1674996e+11 </wgt>
<wgt id='1328'> +2.9921143e+11 </wgt>
<wgt id='1329'> +2.9799809e+11 </wgt>
<wgt id='1330'> +2.8417367e+11 </wgt>
<wgt id='1331'> +3.2465949e+11 </wgt>
<wgt id='1332'> +3.0068214e+11 </wgt>
<wgt id='1333'> +3.0273722e+11 </wgt>
<wgt id='1334'> +3.2046884e+11 </wgt>
<wgt id='1335'> +2.9186690e+11 </wgt>
<wgt id='1336'> +3.2013904e+11 </wgt>
<wgt id='1337'> +3.1005559e+11 </wgt>
<wgt id='1338'> +2.8683744e+11 </wgt>
<wgt id='1339'> +3.1341701e+11 </wgt>
<wgt id='1340'> +3.1290884e+11 </wgt>
<wgt id='1341'> +3.2998762e+11 </wgt>
<wgt id='1342'> +3.0041375e+11 </wgt>
<wgt id='1343'> +3.0938039e+11 </wgt>
<wgt id='1344'> +3.1996933e+11 </wgt>
<wgt id='1345'> +2.5987034e+11 </wgt>
<wgt id='1346'> +3.0577316e+11 </wgt>
<wgt id='1347'> +2.9506291e+11 </wgt>
<wgt id='1348'> +2.9148792e+11 </wgt>
<wgt id='1349'> +2.8874817e+11 </wgt>
<wgt id='1350'> +3.1309398e+11 </wgt>
<wgt id='1351'> +2.9060454e+11 </wgt>
<wgt id='1352'> +3.0524694e+11 </wgt>
<wgt id='1353'> +3.0263361e+11 </wgt>
<wgt id='1354'> +3.1159544e+11 </wgt>
<wgt id='1355'> +2.7977286e+11 </wgt>
<wgt id='1356'> +2.8232184e+11 </wgt>
<wgt id='1357'> +2.8042680e+11 </wgt>
<wgt id='1358'> +2.7835144e+11 </wgt>
<wgt id='1359'> +2.7859693e+11 </wgt>
<wgt id='1360'> +2.7515966e+11 </wgt>
<wgt id='1361'> +2.7829014e+11 </wgt>
<wgt id='1362'> +2.8795686e+11 </wgt>
<wgt id='1363'> +2.7856766e+11 </wgt>
<wgt id='1364'> +2.8547096e+11 </wgt>
<wgt id='1365'> +2.7769146e+11 </wgt>
<wgt id='1366'> +2.7588813e+11 </wgt>
<wgt id='1367'> +2.7889669e+11 </wgt>
<wgt id='1368'> +2.8061202e+11 </wgt>
<wgt id='1369'> +2.8313643e+11 </wgt>
<wgt id='1370'> +2.7584543e+11 </wgt>
<wgt id='1371'> +2.7995999e+11 </wgt>
<wgt id='1372'> +2.8008942e+11 </wgt>
<wgt id='1373'> +2.8322731e+11 </wgt>
<wgt id='1374'> +2.7348117e+11 </wgt>
<wgt id='1375'> +2.8133791e+11 </wgt>
<wgt id='1376'> +2.7878851e+11 </wgt>
<wgt id='1377'> +2.8011368e+11 </wgt>
<wgt id='1378'> +2.8074189e+11 </wgt>
<wgt id='1379'> +2.7813686e+11 </wgt>
<wgt id='1380'> +2.7719770e+11 </wgt>
<wgt id='1381'> +2.8399590e+11 </wgt>
<wgt id='1382'> +2.7823323e+11 </wgt>
<wgt id='1383'> +2.7682001e+11 </wgt>
<wgt id='1384'> +2.7498876e+11 </wgt>
<wgt id='1385'> +2.7454808e+11 </wgt>
<wgt id='1386'> +2.7724575e+11 </wgt>
<wgt id='1387'> +2.7792247e+11 </wgt>
<wgt id='1388'> +2.7517145e+11 </wgt>
<wgt id='1389'> +2.7823856e+11 </wgt>
<wgt id='1390'> +2.8254123e+11 </wgt>
<wgt id='1391'> +2.7915260e+11 </wgt>
<wgt id='1392'> +2.7551098e+11 </wgt>
<wgt id='1393'> +2.8133309e+11 </wgt>
<wgt id='1394'> +2.7914639e+11 </wgt>
<wgt id='1395'> +2.7454320e+11 </wgt>
<wgt id='1396'> +2.8008156e+11 </wgt>
<wgt id='1397'> +2.8027704e+11 </wgt>
<wgt id='1398'> +2.8384175e+11 </wgt>
<wgt id='1399'> +2.7791792e+11 </wgt>
<wgt id='1400'> +2.7437737e+11 </wgt>
<wgt id='1401'> +2.8067250e+11 </wgt>
<wgt id='1402'> +2.8213041e+11 </wgt>
<wgt id='1403'> +2.8889229e+11 </wgt>
<wgt id='1404'> +2.8342622e+11 </wgt>
<wgt id='1405'> +2.8721866e+11 </wgt>
<wgt id='1406'> +2.8325812e+11 </wgt>
<wgt id='1407'> +2.8066599e+11 </wgt>
<wgt id='1408'> +2.8718773e+11 </wgt>
<wgt id='1409'> +2.7463182e+11 </wgt>
<wgt id='1410'> +2.7195807e+11 </wgt>
<wgt id='1411'> +2.7949804e+11 </wgt>
<wgt id='1412'> +2.7895994e+11 </wgt>
<wgt id='1413'> +2.8234453e+11 </wgt>
<wgt id='1414'> +2.8231876e+11 </wgt>
<wgt id='1415'> +2.7935756e+11 </wgt>
<wgt id='1416'> +2.8091247e+11 </wgt>
<wgt id='1417'> +2.7750322e+11 </wgt>
<wgt id='1418'> +2.7871154e+11 </wgt>
<wgt id='1419'> +2.8314156e+11 </wgt>
<wgt id='1420'> +2.7481953e+11 </wgt>
<wgt id='1421'> +2.8651709e+11 </wgt>
<wgt id='1422'> +2.7265635e+11 </wgt>
<wgt id='1423'> +2.8367549e+11 </wgt>
<wgt id='1424'> +2.8017195e+11 </wgt>
<wgt id='1425'> +2.8015710e+11 </wgt>
<wgt id='1426'> +2.8201507e+11 </wgt>
<wgt id='1427'> +2.7826508e+11 </wgt>
<wgt id='1428'> +2.7804764e+11 </wgt>
<wgt id='1429'> +2.8065433e+11 </wgt>
<wgt id='1430'> +2.7638960e+11 </wgt>
<wgt id='1431'> +2.7609651e+11 </wgt>
<wgt id='1432'> +2.7635931e+11 </wgt>
<wgt id='1433'> +2.7520023e+11 </wgt>
<wgt id='1434'> +2.8679820e+11 </wgt>
<wgt id='1435'> +2.7905595e+11 </wgt>
<wgt id='1436'> +2.8371233e+11 </wgt>
<wgt id='1437'> +2.7838579e+11 </wgt>
<wgt id='1438'> +2.7951934e+11 </wgt>
<wgt id='1439'> +2.8622741e+11 </wgt>
<wgt id='1440'> +2.8068427e+11 </wgt>
<wgt id='1441'> +2.7585805e+11 </wgt>
<wgt id='1442'> +2.8261897e+11 </wgt>
<wgt id='1443'> +2.7621893e+11 </wgt>
<wgt id='1444'> +2.8538690e+11 </wgt>
<wgt id='1445'> +2.7906599e+11 </wgt>
<wgt id='1446'> +2.8789748e+11 </wgt>
<wgt id='1447'> +2.7923028e+11 </wgt>
<wgt id='1448'> +2.8239432e+11 </wgt>
<wgt id='1449'> +2.8288349e+11 </wgt>
<wgt id='1450'> +2.7912885e+11 </wgt>
<wgt id='1451'> +2.8011560e+11 </wgt>
<wgt id='1452'> +2.8188399e+11 </wgt>
<wgt id='1453'> +2.8105766e+11 </wgt>
<wgt id='1454'> +2.7103146e+11 </wgt>
<wgt id='1455'> +2.7821991e+11 </wgt>
<wgt id='1456'> +2.7826195e+11 </wgt>
<wgt id='1457'> +2.7936268e+11 </wgt>
<wgt id='1458'> +2.8610134e+11 </wgt>
<wgt id='1459'> +3.1218523e+11 </wgt>
<wgt id='1460'> +3.0698500e+11 </wgt>
<wgt id='1461'> +3.6629903e+11 </wgt>
<wgt id='1462'> +3.0106655e+11 </wgt>
<wgt id='1463'> +3.0128805e+11 </wgt>
<wgt id='1464'> +3.0078246e+11 </wgt>
<wgt id='1465'> +3.0113391e+11 </wgt>
<wgt id='1466'> +3.0100502e+11 </wgt>
<wgt id='1467'> +3.0118196e+11 </wgt>
<wgt id='1468'> +3.0087715e+11 </wgt>
<wgt id='1469'> +3.0063454e+11 </wgt>
<wgt id='1470'> +3.0141739e+11 </wgt>
<wgt id='1471'> +3.0151578e+11 </wgt>
<wgt id='1472'> +3.0060382e+11 </wgt>
<wgt id='1473'> +3.0226354e+11 </wgt>
<wgt id='1474'> +2.9991682e+11 </wgt>
<wgt id='1475'> +3.0220037e+11 </wgt>
<wgt id='1476'> +3.0026283e+11 </wgt>
<wgt id='1477'> +3.0051934e+11 </wgt>
<wgt id='1478'> +3.0234504e+11 </wgt>
<wgt id='1479'> +3.0072945e+11 </wgt>
<wgt id='1480'> +3.0130652e+11 </wgt>
<wgt id='1481'> +3.0051678e+11 </wgt>
<wgt id='1482'> +3.0181021e+11 </wgt>
<wgt id='1483'> +3.0112770e+11 </wgt>
<wgt id='1484'> +3.0098321e+11 </wgt>
<wgt id='1485'> +3.0127689e+11 </wgt>
<wgt id='1486'> +3.0055991e+11 </wgt>
<wgt id='1487'> +3.0135088e+11 </wgt>
<wgt id='1488'> +3.0071162e+11 </wgt>
<wgt id='1489'> +3.0069183e+11 </wgt>
<wgt id='1490'> +3.0208282e+11 </wgt>
<wgt id='1491'> +3.0609749e+11 </wgt>
<wgt id='1492'> +2.9826350e+11 </wgt>
<wgt id='1493'> +2.9740227e+11 </wgt>
<wgt id='1494'> +3.1255980e+11 </wgt>
<wgt id='1495'> +3.0024741e+11 </wgt>
<wgt id='1496'> +3.0194622e+11 </wgt>
<wgt id='1497'> +3.0127536e+11 </wgt>
<wgt id='1498'> +3.0078139e+11 </wgt>
<wgt id='1499'> +3.0314597e+11 </wgt>
<wgt id='1500'> +2.9993111e+11 </wgt>
<wgt id='1501'> +3.0142396e+11 </wgt>
<wgt id='1502'> +3.0012553e+11 </wgt>
<wgt id='1503'> +2.9691336e+11 </wgt>
<wgt id='1504'> +3.0568961e+11 </wgt>
<wgt id='1505'> +3.0177986e+11 </wgt>
<wgt id='1506'> +3.0036355e+11 </wgt>
<wgt id='1507'> +3.0419057e+11 </wgt>
<wgt id='1508'> +2.9626169e+11 </wgt>
<wgt id='1509'> +3.0183262e+11 </wgt>
<wgt id='1510'> +2.9776460e+11 </wgt>
<wgt id='1511'> +3.0229198e+11 </wgt>
<wgt id='1512'> +3.0069809e+11 </wgt>
<wgt id='1513'> +3.0090484e+11 </wgt>
<wgt id='1514'> +3.0125870e+11 </wgt>
<wgt id='1515'> +3.0468604e+11 </wgt>
<wgt id='1516'> +3.0073312e+11 </wgt>
<wgt id='1517'> +3.0055486e+11 </wgt>
<wgt id='1518'> +3.0174384e+11 </wgt>
<wgt id='1519'> +2.9910718e+11 </wgt>
<wgt id='1520'> +3.0245493e+11 </wgt>
<wgt id='1521'> +2.9987928e+11 </wgt>
<wgt id='1522'> +3.0173881e+11 </wgt>
<wgt id='1523'> +3.0226133e+11 </wgt>
<wgt id='1524'> +3.0270765e+11 </wgt>
<wgt id='1525'> +3.0183808e+11 </wgt>
<wgt id='1526'> +3.0248204e+11 </wgt>
<wgt id='1527'> +3.0106655e+11 </wgt>
<wgt id='1528'> +3.0004356e+11 </wgt>
<wgt id='1529'> +3.0177927e+11 </wgt>
<wgt id='1530'> +2.9699542e+11 </wgt>
<wgt id='1531'> +3.0358087e+11 </wgt>
<wgt id='1532'> +3.0280456e+11 </wgt>
<wgt id='1533'> +2.9813940e+11 </wgt>
<wgt id='1534'> +3.0195988e+11 </wgt>
<wgt id='1535'> +3.0675712e+11 </wgt>
<wgt id='1536'> +3.0038331e+11 </wgt>
<wgt id='1537'> +3.0503457e+11 </wgt>
<wgt id='1538'> +2.9968121e+11 </wgt>
<wgt id='1539'> +3.0877333e+11 </wgt>
<wgt id='1540'> +3.0454513e+11 </wgt>
<wgt id='1541'> +3.0512538e+11 </wgt>
<wgt id='1542'> +3.0370174e+11 </wgt>
<wgt id='1543'> +3.0532598e+11 </wgt>
<wgt id='1544'> +3.0190161e+11 </wgt>
<wgt id='1545'> +3.0155316e+11 </wgt>
<wgt id='1546'> +2.9977295e+11 </wgt>
<wgt id='1547'> +3.0587858e+11 </wgt>
<wgt id='1548'> +3.0229325e+11 </wgt>
<wgt id='1549'> +3.0005386e+11 </wgt>
<wgt id='1550'> +3.0557926e+11 </wgt>
<wgt id='1551'> +3.0419448e+11 </wgt>
<wgt id='1552'> +3.0362266e+11 </wgt>
<wgt id='1553'> +3.0803251e+11 </wgt>
<wgt id='1554'> +3.0376548e+11 </wgt>
<wgt id='1555'> +3.0454313e+11 </wgt>
<wgt id='1556'> +3.0565636e+11 </wgt>
<wgt id='1557'> +3.0317539e+11 </wgt>
<wgt id='1558'> +3.0392815e+11 </wgt>
<wgt id='1559'> +3.0096766e+11 </wgt>
<wgt id='1560'> +3.0244263e+11 </wgt>
<wgt id='1561'> +3.0140268e+11 </wgt>
<wgt id='1562'> +3.0186511e+11 </wgt>
<wgt id='1563'> +3.0383382e+11 </wgt>
<wgt id='1564'> +3.0328241e+11 </wgt>
<wgt id='1565'> +3.0640029e+11 </wgt>
<wgt id='1566'> +3.0359153e+11 </wgt>
<wgt id='1567'> +3.0516694e+11 </wgt>
<wgt id='1568'> +3.0343809e+11 </wgt>
<wgt id='1569'> +3.0298122e+11 </wgt>
<wgt id='1570'> +3.1004294e+11 </wgt>
<wgt id='1571'> +3.0364578e+11 </wgt>
<wgt id='1572'> +3.0538486e+11 </wgt>
<wgt id='1573'> +3.0772790e+11 </wgt>
<wgt id='1574'> +2.5541678e+11 </wgt>
<wgt id='1575'> +2.5548393e+11 </wgt>
<wgt id='1576'> +2.5534829e+11 </wgt>
<wgt id='1577'> +2.5543476e+11 </wgt>
<wgt id='1578'> +2.5600557e+11 </wgt>
<wgt id='1579'> +2.5621593e+11 </wgt>
<wgt id='1580'> +2.5598225e+11 </wgt>
<wgt id='1581'> +2.5493245e+11 </wgt>
<wgt id='1582'> +2.5466232e+11 </wgt>
<wgt id='1583'> +2.5495531e+11 </wgt>
<wgt id='1584'> +2.5598228e+11 </wgt>
<wgt id='1585'> +2.5566281e+11 </wgt>
<wgt id='1586'> +2.5460261e+11 </wgt>
<wgt id='1587'> +2.5475811e+11 </wgt>
<wgt id='1588'> +2.5431281e+11 </wgt>
<wgt id='1589'> +2.5509901e+11 </wgt>
<wgt id='1590'> +2.5526428e+11 </wgt>
<wgt id='1591'> +2.5549690e+11 </wgt>
<wgt id='1592'> +2.5443602e+11 </wgt>
<wgt id='1593'> +2.5433648e+11 </wgt>
<wgt id='1594'> +2.5646444e+11 </wgt>
<wgt id='1595'> +2.5289593e+11 </wgt>
<wgt id='1596'> +2.5963722e+11 </wgt>
<wgt id='1597'> +2.5723258e+11 </wgt>
<wgt id='1598'> +2.5736094e+11 </wgt>
<wgt id='1599'> +2.5241073e+11 </wgt>
<wgt id='1600'> +2.6031039e+11 </wgt>
<wgt id='1601'> +2.5757589e+11 </wgt>
<wgt id='1602'> +2.5547059e+11 </wgt>
<wgt id='1603'> +2.6922482e+11 </wgt>
<wgt id='1604'> +2.5558136e+11 </wgt>
</rwgt>
</event>
<event>
 9      1 +2.8343000e+11 1.40000000e+03 7.81738600e-03 7.88881100e-02
       21 -1    0    0  504  503 +0.0000000000e+00 +0.0000000000e+00 +7.7396959061e+02 7.7396959061e+02 0.0000000000e+00 0.0000e+00 1.0000e+00
       21 -1    0    0  503  504 -0.0000000000e+00 -0.0000000000e+00 -6.3310007378e+02 6.3310007378e+02 0.0000000000e+00 0.0000e+00 1.0000e+00
       45  2    1    2    0    0 +2.8421709430e-14 -1.1368683772e-13 +1.4086951683e+02 1.4070696644e+03 1.4000002927e+03 0.0000e+00 0.0000e+00
       25  2    3    3    0    0 -2.2442471217e+02 +6.5404255159e+02 +6.8109519492e+01 7.0597613639e+02 1.2500115113e+02 0.0000e+00 0.0000e+00
       35  2    3    3    0    0 +2.2442471217e+02 -6.5404255159e+02 +7.2759997342e+01 7.0109352800e+02 9.0000039273e+01 0.0000e+00 0.0000e+00
        5  1    5    5  501    0 +1.2929848277e+01 -7.4640031009e+01 -1.7099559115e+01 7.7771896746e+01 4.2140000000e+00 0.0000e+00 -1.0000e+00
       -5  1    5    5    0  501 +2.1149486389e+02 -5.7940252058e+02 +8.9859556457e+01 6.2332163126e+02 4.2140000000e+00 0.0000e+00 -1.0000e+00
        5  1    4    4  502    0 -1.8295753595e+02 +6.0830864451e+02 +8.7252405830e+01 6.4120480899e+02 4.2140000000e+00 0.0000e+00 1.0000e+00
       -5  1    4    4    0  502 -4.1467176220e+01 +4.5733907077e+01 -1.9142886337e+01 6.4771327403e+01 4.2140000000e+00 0.0000e+00 1.0000e+00
<mgrwt>
<rscale>  0 0.14000003E+04</rscale>
<asrwt>0</asrwt>
<pdfrwt beam="1">  1       21 0.11907224E+00 0.14000003E+04</pdfrwt>
<pdfrwt beam="2">  1       21 0.97400012E-01 0.14000003E+04</pdfrwt>
<totfact> 0.35578121E+02</totfact>
</mgrwt>
<rwgt>
<wgt id='1001'> +2.8343000e+11 </wgt>
<wgt id='1002'> +2.8375982e+11 </wgt>
<wgt id='1003'> +2.8375921e+11 </wgt>
<wgt id='1004'> +3.1809864e+11 </wgt>
<wgt id='1005'> +2.8343000e+11 </wgt>
<wgt id='1006'> +2.8343000e+11 </wgt>
<wgt id='1007'> +2.8375982e+11 </wgt>
<wgt id='1008'> +2.8375921e+11 </wgt>
<wgt id='1009'> +3.1809864e+11 </wgt>
<wgt id='1010'> +2.8343000e+11 </wgt>
<wgt id='1011'> +2.8343000e+11 </wgt>
<wgt id='1012'> +2.8375982e+11 </wgt>
<wgt id='1013'> +2.8375921e+11 </wgt>
<wgt id='1014'> +3.1809864e+11 </wgt>
<wgt id='1015'> +2.8343000e+11 </wgt>
<wgt id='1016'> +2.5467125e+11 </wgt>
<wgt id='1017'> +2.5495083e+11 </wgt>
<wgt id='1018'> +2.5495031e+11 </wgt>
<wgt id='1019'> +2.8375921e+11 </wgt>
<wgt id='1020'> +2.5467125e+11 </wgt>
<wgt id='1021'> +2.5467125e+11 </wgt>
<wgt id='1022'> +2.5495083e+11 </wgt>
<wgt id='1023'> +2.5495031e+11 </wgt>
<wgt id='1024'> +2.8375921e+11 </wgt>
<wgt id='1025'> +2.5467125e+11 </wgt>
<wgt id='1026'> +2.5467125e+11 </wgt>
<wgt id='1027'> +2.5495083e+11 </wgt>
<wgt id='1028'> +2.5495031e+11 </wgt>
<wgt id='1029'> +2.8375921e+11 </wgt>
<wgt id='1030'> +2.5467125e+11 </wgt>
<wgt id='1031'> +3.1770367e+11 </wgt>
<wgt id='1032'> +3.1809937e+11 </wgt>
<wgt id='1033'> +3.1809864e+11 </wgt>
<wgt id='1034'> +3.5937025e+11 </wgt>
<wgt id='1035'> +3.1770367e+11 </wgt>
<wgt id='1036'> +3.1770367e+11 </wgt>
<wgt id='1037'> +3.1809937e+11 </wgt>
<wgt id='1038'> +3.1809864e+11 </wgt>
<wgt id='1039'> +3.5937025e+11 </wgt>
<wgt id='1040'> +3.1770367e+11 </wgt>
<wgt id='1041'> +3.1770367e+11 </wgt>
<wgt id='1042'> +3.1809937e+11 </wgt>
<wgt id='1043'> +3.1809864e+11 </wgt>
<wgt id='1044'> +3.5937025e+11 </wgt>
<wgt id='1045'> +3.1770367e+11 </wgt>
<wgt id='1046'> +2.8343000e+11 </wgt>
<wgt id='1047'> +2.8343000e+11 </wgt>
<wgt id='1048'> +2.8343000e+11 </wgt>
<wgt id='1049'> +2.8229148e+11 </wgt>
<wgt id='1050'> +2.8306025e+11 </wgt>
<wgt id='1051'> +2.8372612e+11 </wgt>
<wgt id='1052'> +2.8421600e+11 </wgt>
<wgt id='1053'> +2.8188629e+11 </wgt>
<wgt id='1054'> +2.8387581e+11 </wgt>
<wgt id='1055'> +2.8225127e+11 </wgt>
<wgt id='1056'> +2.8182939e+11 </wgt>
<wgt id='1057'> +2.8418968e+11 </wgt>
<wgt id='1058'> +2.8304691e+11 </wgt>
<wgt id='1059'> +2.8540685e+11 </wgt>
<wgt id='1060'> +2.8365952e+11 </wgt>
<wgt id='1061'> +2.8419284e+11 </wgt>
<wgt id='1062'> +2.8402079e+11 </wgt>
<wgt id='1063'> +2.8368690e+11 </wgt>
<wgt id='1064'> +2.8466780e+11 </wgt>
<wgt id='1065'> +2.8486305e+11 </wgt>
<wgt id='1066'> +2.8195195e+11 </wgt>
<wgt id='1067'> +2.7977086e+11 </wgt>
<wgt id='1068'> +2.8378604e+11 </wgt>
<wgt id='1069'> +2.8276467e+11 </wgt>
<wgt id='1070'> +2.8345118e+11 </wgt>
<wgt id='1071'> +2.8483614e+11 </wgt>
<wgt id='1072'> +2.8114550e+11 </wgt>
<wgt id='1073'> +2.8409933e+11 </wgt>
<wgt id='1074'> +2.8308198e+11 </wgt>
<wgt id='1075'> +2.8441829e+11 </wgt>
<wgt id='1076'> +2.8315048e+11 </wgt>
<wgt id='1077'> +2.8291808e+11 </wgt>
<wgt id='1078'> +2.8410096e+11 </wgt>
<wgt id='1079'> +2.8180623e+11 </wgt>
<wgt id='1080'> +2.8279354e+11 </wgt>
<wgt id='1081'> +2.8301446e+11 </wgt>
<wgt id='1082'> +2.8205051e+11 </wgt>
<wgt id='1083'> +2.8398968e+11 </wgt>
<wgt id='1084'> +2.8406888e+11 </wgt>
<wgt id='1085'> +2.8285191e+11 </wgt>
<wgt id='1086'> +2.8281827e+11 </wgt>
<wgt id='1087'> +2.8308302e+11 </wgt>
<wgt id='1088'> +2.8294085e+11 </wgt>
<wgt id='1089'> +2.8279836e+11 </wgt>
<wgt id='1090'> +2.8413568e+11 </wgt>
<wgt id='1091'> +2.8349581e+11 </wgt>
<wgt id='1092'> +2.8369198e+11 </wgt>
<wgt id='1093'> +2.8332302e+11 </wgt>
<wgt id='1094'> +2.8289920e+11 </wgt>
<wgt id='1095'> +2.8354767e+11 </wgt>
<wgt id='1096'> +2.8337672e+11 </wgt>
<wgt id='1097'> +2.8303337e+11 </wgt>
<wgt id='1098'> +2.8307679e+11 </wgt>
<wgt id='1099'> +2.8322537e+11 </wgt>
<wgt id='1100'> +2.8401836e+11 </wgt>
<wgt id='1101'> +2.8340905e+11 </wgt>
<wgt id='1102'> +2.8328300e+11 </wgt>
<wgt id='1103'> +2.8310517e+11 </wgt>
<wgt id='1104'> +2.8310407e+11 </wgt>
<wgt id='1105'> +2.8353969e+11 </wgt>
<wgt id='1106'> +2.8376121e+11 </wgt>
<wgt id='1107'> +2.8333595e+11 </wgt>
<wgt id='1108'> +2.8333809e+11 </wgt>
<wgt id='1109'> +2.8323643e+11 </wgt>
<wgt id='1110'> +2.8376033e+11 </wgt>
<wgt id='1111'> +2.8356024e+11 </wgt>
<wgt id='1112'> +2.8339795e+11 </wgt>
<wgt id='1113'> +2.8373934e+11 </wgt>
<wgt id='1114'> +2.8311227e+11 </wgt>
<wgt id='1115'> +2.8325290e+11 </wgt>
<wgt id='1116'> +2.8373898e+11 </wgt>
<wgt id='1117'> +2.8337216e+11 </wgt>
<wgt id='1118'> +2.8353242e+11 </wgt>
<wgt id='1119'> +2.8325325e+11 </wgt>
<wgt id='1120'> +2.8328351e+11 </wgt>
<wgt id='1121'> +2.8349481e+11 </wgt>
<wgt id='1122'> +2.8322742e+11 </wgt>
<wgt id='1123'> +2.8337407e+11 </wgt>
<wgt id='1124'> +2.8334178e+11 </wgt>
<wgt id='1125'> +2.8358958e+11 </wgt>
<wgt id='1126'> +2.8353593e+11 </wgt>
<wgt id='1127'> +2.8332212e+11 </wgt>
<wgt id='1128'> +2.8347183e+11 </wgt>
<wgt id='1129'> +2.8338774e+11 </wgt>
<wgt id='1130'> +2.8346342e+11 </wgt>
<wgt id='1131'> +2.8369835e+11 </wgt>
<wgt id='1132'> +2.8335183e+11 </wgt>
<wgt id='1133'> +2.8350657e+11 </wgt>
<wgt id='1134'> +2.8341001e+11 </wgt>
<wgt id='1135'> +2.8346903e+11 </wgt>
<wgt id='1136'> +2.8339759e+11 </wgt>
<wgt id='1137'> +2.8328620e+11 </wgt>
<wgt id='1138'> +2.8354340e+11 </wgt>
<wgt id='1139'> +2.8346817e+11 </wgt>
<wgt id='1140'> +2.8364165e+11 </wgt>
<wgt id='1141'> +2.8330323e+11 </wgt>
<wgt id='1142'> +2.8350037e+11 </wgt>
<wgt id='1143'> +2.8359504e+11 </wgt>
<wgt id='1144'> +2.8334471e+11 </wgt>
<wgt id='1145'> +2.8355382e+11 </wgt>
<wgt id='1146'> +2.8341115e+11 </wgt>
<wgt id='1147'> +2.8347549e+11 </wgt>
<wgt id='1148'> +2.8343000e+11 </wgt>
<wgt id='1149'> +2.8343000e+11 </wgt>
<wgt id='1150'> +2.9140015e+11 </wgt>
<wgt id='1151'> +2.8112009e+11 </wgt>
<wgt id='1152'> +2.8519579e+11 </wgt>
<wgt id='1153'> +2.8767146e+11 </wgt>
<wgt id='1154'> +2.8733310e+11 </wgt>
<wgt id='1155'> +2.8848703e+11 </wgt>
<wgt id='1156'> +2.7656574e+11 </wgt>
<wgt id='1157'> +2.7657958e+11 </wgt>
<wgt id='1158'> +2.7762828e+11 </wgt>
<wgt id='1159'> +2.9631337e+11 </wgt>
<wgt id='1160'> +2.8166117e+11 </wgt>
<wgt id='1161'> +2.8553317e+11 </wgt>
<wgt id='1162'> +2.7653836e+11 </wgt>
<wgt id='1163'> +2.8682304e+11 </wgt>
<wgt id='1164'> +2.6765192e+11 </wgt>
<wgt id='1165'> +2.7928096e+11 </wgt>
<wgt id='1166'> +2.8497182e+11 </wgt>
<wgt id='1167'> +2.7987918e+11 </wgt>
<wgt id='1168'> +2.7650289e+11 </wgt>
<wgt id='1169'> +2.7595359e+11 </wgt>
<wgt id='1170'> +2.7620191e+11 </wgt>
<wgt id='1171'> +2.7344968e+11 </wgt>
<wgt id='1172'> +2.7750037e+11 </wgt>
<wgt id='1173'> +2.8792484e+11 </wgt>
<wgt id='1174'> +2.7960333e+11 </wgt>
<wgt id='1175'> +2.7529524e+11 </wgt>
<wgt id='1176'> +2.8637841e+11 </wgt>
<wgt id='1177'> +2.7922393e+11 </wgt>
<wgt id='1178'> +2.8314469e+11 </wgt>
<wgt id='1179'> +2.8029298e+11 </wgt>
<wgt id='1180'> +2.8401604e+11 </wgt>
<wgt id='1181'> +2.7664347e+11 </wgt>
<wgt id='1182'> +2.8159200e+11 </wgt>
<wgt id='1183'> +2.9562635e+11 </wgt>
<wgt id='1184'> +2.7654412e+11 </wgt>
<wgt id='1185'> +2.8096289e+11 </wgt>
<wgt id='1186'> +2.7180174e+11 </wgt>
<wgt id='1187'> +2.8569319e+11 </wgt>
<wgt id='1188'> +2.7746740e+11 </wgt>
<wgt id='1189'> +2.8552678e+11 </wgt>
<wgt id='1190'> +2.8416770e+11 </wgt>
<wgt id='1191'> +2.9510492e+11 </wgt>
<wgt id='1192'> +2.9178713e+11 </wgt>
<wgt id='1193'> +2.9529415e+11 </wgt>
<wgt id='1194'> +2.8456036e+11 </wgt>
<wgt id='1195'> +2.8376088e+11 </wgt>
<wgt id='1196'> +2.9234771e+11 </wgt>
<wgt id='1197'> +2.9400409e+11 </wgt>
<wgt id='1198'> +2.7551615e+11 </wgt>
<wgt id='1199'> +2.8212921e+11 </wgt>
<wgt id='1200'> +2.8238389e+11 </wgt>
<wgt id='1201'> +2.7934785e+11 </wgt>
<wgt id='1202'> +2.8862551e+11 </wgt>
<wgt id='1203'> +2.7767249e+11 </wgt>
<wgt id='1204'> +2.8822456e+11 </wgt>
<wgt id='1205'> +2.8506966e+11 </wgt>
<wgt id='1206'> +2.7654156e+11 </wgt>
<wgt id='1207'> +2.9309309e+11 </wgt>
<wgt id='1208'> +2.7280028e+11 </wgt>
<wgt id='1209'> +2.7873455e+11 </wgt>
<wgt id='1210'> +2.8040600e+11 </wgt>
<wgt id='1211'> +2.8574192e+11 </wgt>
<wgt id='1212'> +2.8365272e+11 </wgt>
<wgt id='1213'> +2.9336146e+11 </wgt>
<wgt id='1214'> +2.7572946e+11 </wgt>
<wgt id='1215'> +2.9191351e+11 </wgt>
<wgt id='1216'> +2.8600128e+11 </wgt>
<wgt id='1217'> +2.7593315e+11 </wgt>
<wgt id='1218'> +2.8477635e+11 </wgt>
<wgt id='1219'> +2.9439394e+11 </wgt>
<wgt id='1220'> +2.7711212e+11 </wgt>
<wgt id='1221'> +2.7506356e+11 </wgt>
<wgt id='1222'> +2.8036125e+11 </wgt>
<wgt id='1223'> +2.7260679e+11 </wgt>
<wgt id='1224'> +2.8351806e+11 </wgt>
<wgt id='1225'> +2.8812146e+11 </wgt>
<wgt id='1226'> +2.9059907e+11 </wgt>
<wgt id='1227'> +2.7315657e+11 </wgt>
<wgt id='1228'> +2.8138995e+11 </wgt>
<wgt id='1229'> +3.0281641e+11 </wgt>
<wgt id='1230'> +2.9409534e+11 </wgt>
<wgt id='1231'> +2.7928096e+11 </wgt>
<wgt id='1232'> +2.8909030e+11 </wgt>
<wgt id='1233'> +2.7812276e+11 </wgt>
<wgt id='1234'> +2.7635807e+11 </wgt>
<wgt id='1235'> +3.0296399e+11 </wgt>
<wgt id='1236'> +2.7660133e+11 </wgt>
<wgt id='1237'> +2.8980957e+11 </wgt>
<wgt id='1238'> +2.8955213e+11 </wgt>
<wgt id='1239'> +2.9195712e+11 </wgt>
<wgt id='1240'> +2.8541504e+11 </wgt>
<wgt id='1241'> +2.8204007e+11 </wgt>
<wgt id='1242'> +2.8073020e+11 </wgt>
<wgt id='1243'> +2.8890993e+11 </wgt>
<wgt id='1244'> +2.8127001e+11 </wgt>
<wgt id='1245'> +2.8178402e+11 </wgt>
<wgt id='1246'> +3.0719499e+11 </wgt>
<wgt id='1247'> +2.8367054e+11 </wgt>
<wgt id='1248'> +2.7532144e+11 </wgt>
<wgt id='1249'> +2.7761779e+11 </wgt>
<wgt id='1250'> +2.9213199e+11 </wgt>
<wgt id='1251'> +2.9871522e+11 </wgt>
<wgt id='1252'> +2.8716603e+11 </wgt>
<wgt id='1253'> +2.8528186e+11 </wgt>
<wgt id='1254'> +2.8862094e+11 </wgt>
<wgt id='1255'> +2.9804374e+11 </wgt>
<wgt id='1256'> +2.9541978e+11 </wgt>
<wgt id='1257'> +2.8578310e+11 </wgt>
<wgt id='1258'> +3.0012456e+11 </wgt>
<wgt id='1259'> +2.9476920e+11 </wgt>
<wgt id='1260'> +3.2546205e+11 </wgt>
<wgt id='1261'> +3.1374687e+11 </wgt>
<wgt id='1262'> +2.8966263e+11 </wgt>
<wgt id='1263'> +2.9672810e+11 </wgt>
<wgt id='1264'> +2.9857313e+11 </wgt>
<wgt id='1265'> +2.9864024e+11 </wgt>
<wgt id='1266'> +2.9441671e+11 </wgt>
<wgt id='1267'> +3.1578790e+11 </wgt>
<wgt id='1268'> +2.9413479e+11 </wgt>
<wgt id='1269'> +2.8717932e+11 </wgt>
<wgt id='1270'> +2.9149753e+11 </wgt>
<wgt id='1271'> +2.7923756e+11 </wgt>
<wgt id='1272'> +2.9331195e+11 </wgt>
<wgt id='1273'> +2.9185458e+11 </wgt>
<wgt id='1274'> +2.8759509e+11 </wgt>
<wgt id='1275'> +2.9845286e+11 </wgt>
<wgt id='1276'> +2.9552416e+11 </wgt>
<wgt id='1277'> +2.9089396e+11 </wgt>
<wgt id='1278'> +2.8670828e+11 </wgt>
<wgt id='1279'> +2.8116819e+11 </wgt>
<wgt id='1280'> +2.9371711e+11 </wgt>
<wgt id='1281'> +2.8578986e+11 </wgt>
<wgt id='1282'> +2.9658920e+11 </wgt>
<wgt id='1283'> +2.9629068e+11 </wgt>
<wgt id='1284'> +3.1472067e+11 </wgt>
<wgt id='1285'> +3.0817923e+11 </wgt>
<wgt id='1286'> +3.2866749e+11 </wgt>
<wgt id='1287'> +3.0325507e+11 </wgt>
<wgt id='1288'> +3.2365369e+11 </wgt>
<wgt id='1289'> +3.1297192e+11 </wgt>
<wgt id='1290'> +3.1139135e+11 </wgt>
<wgt id='1291'> +2.7789153e+11 </wgt>
<wgt id='1292'> +2.9743739e+11 </wgt>
<wgt id='1293'> +3.0017742e+11 </wgt>
<wgt id='1294'> +3.1442479e+11 </wgt>
<wgt id='1295'> +2.9835671e+11 </wgt>
<wgt id='1296'> +3.1545316e+11 </wgt>
<wgt id='1297'> +2.9546003e+11 </wgt>
<wgt id='1298'> +2.8773020e+11 </wgt>
<wgt id='1299'> +2.9860091e+11 </wgt>
<wgt id='1300'> +2.8801268e+11 </wgt>
<wgt id='1301'> +2.8086631e+11 </wgt>
<wgt id='1302'> +2.7585574e+11 </wgt>
<wgt id='1303'> +2.9840105e+11 </wgt>
<wgt id='1304'> +3.0615887e+11 </wgt>
<wgt id='1305'> +2.9830447e+11 </wgt>
<wgt id='1306'> +3.0518222e+11 </wgt>
<wgt id='1307'> +3.0354305e+11 </wgt>
<wgt id='1308'> +3.2533658e+11 </wgt>
<wgt id='1309'> +2.9581472e+11 </wgt>
<wgt id='1310'> +3.0217086e+11 </wgt>
<wgt id='1311'> +3.0787485e+11 </wgt>
<wgt id='1312'> +2.9916445e+11 </wgt>
<wgt id='1313'> +2.9688952e+11 </wgt>
<wgt id='1314'> +3.0407530e+11 </wgt>
<wgt id='1315'> +2.8490105e+11 </wgt>
<wgt id='1316'> +2.9850771e+11 </wgt>
<wgt id='1317'> +3.0134807e+11 </wgt>
<wgt id='1318'> +2.8642348e+11 </wgt>
<wgt id='1319'> +3.0758386e+11 </wgt>
<wgt id='1320'> +3.0906719e+11 </wgt>
<wgt id='1321'> +2.9372929e+11 </wgt>
<wgt id='1322'> +2.9780242e+11 </wgt>
<wgt id='1323'> +2.9854365e+11 </wgt>
<wgt id='1324'> +3.0125828e+11 </wgt>
<wgt id='1325'> +3.1090092e+11 </wgt>
<wgt id='1326'> +3.0286972e+11 </wgt>
<wgt id='1327'> +2.9359705e+11 </wgt>
<wgt id='1328'> +3.0251222e+11 </wgt>
<wgt id='1329'> +2.9772478e+11 </wgt>
<wgt id='1330'> +2.9065040e+11 </wgt>
<wgt id='1331'> +3.1921806e+11 </wgt>
<wgt id='1332'> +2.8605932e+11 </wgt>
<wgt id='1333'> +3.0053263e+11 </wgt>
<wgt id='1334'> +3.1384720e+11 </wgt>
<wgt id='1335'> +2.9249331e+11 </wgt>
<wgt id='1336'> +3.0234902e+11 </wgt>
<wgt id='1337'> +3.0844153e+11 </wgt>
<wgt id='1338'> +2.8978568e+11 </wgt>
<wgt id='1339'> +3.2026617e+11 </wgt>
<wgt id='1340'> +3.0161731e+11 </wgt>
<wgt id='1341'> +3.0489963e+11 </wgt>
<wgt id='1342'> +3.1547708e+11 </wgt>
<wgt id='1343'> +3.1022144e+11 </wgt>
<wgt id='1344'> +3.0347809e+11 </wgt>
<wgt id='1345'> +2.7991471e+11 </wgt>
<wgt id='1346'> +2.9948905e+11 </wgt>
<wgt id='1347'> +2.8679355e+11 </wgt>
<wgt id='1348'> +2.8798867e+11 </wgt>
<wgt id='1349'> +2.8976338e+11 </wgt>
<wgt id='1350'> +3.0045758e+11 </wgt>
<wgt id='1351'> +2.9670542e+11 </wgt>
<wgt id='1352'> +3.0046005e+11 </wgt>
<wgt id='1353'> +2.9714070e+11 </wgt>
<wgt id='1354'> +3.0687951e+11 </wgt>
<wgt id='1355'> +2.7549167e+11 </wgt>
<wgt id='1356'> +2.7824464e+11 </wgt>
<wgt id='1357'> +2.7636982e+11 </wgt>
<wgt id='1358'> +2.7291152e+11 </wgt>
<wgt id='1359'> +2.7624696e+11 </wgt>
<wgt id='1360'> +2.6872340e+11 </wgt>
<wgt id='1361'> +2.7552523e+11 </wgt>
<wgt id='1362'> +2.7737065e+11 </wgt>
<wgt id='1363'> +2.6937585e+11 </wgt>
<wgt id='1364'> +2.8173841e+11 </wgt>
<wgt id='1365'> +2.7316376e+11 </wgt>
<wgt id='1366'> +2.7559825e+11 </wgt>
<wgt id='1367'> +2.7634206e+11 </wgt>
<wgt id='1368'> +2.7553210e+11 </wgt>
<wgt id='1369'> +2.7976820e+11 </wgt>
<wgt id='1370'> +2.7362161e+11 </wgt>
<wgt id='1371'> +2.7320165e+11 </wgt>
<wgt id='1372'> +2.7999173e+11 </wgt>
<wgt id='1373'> +2.7913209e+11 </wgt>
<wgt id='1374'> +2.6739195e+11 </wgt>
<wgt id='1375'> +2.7440055e+11 </wgt>
<wgt id='1376'> +2.7637565e+11 </wgt>
<wgt id='1377'> +2.7542298e+11 </wgt>
<wgt id='1378'> +2.7131331e+11 </wgt>
<wgt id='1379'> +2.7395988e+11 </wgt>
<wgt id='1380'> +2.7390322e+11 </wgt>
<wgt id='1381'> +2.8080634e+11 </wgt>
<wgt id='1382'> +2.7511948e+11 </wgt>
<wgt id='1383'> +2.7544323e+11 </wgt>
<wgt id='1384'> +2.7384505e+11 </wgt>
<wgt id='1385'> +2.7401688e+11 </wgt>
<wgt id='1386'> +2.7743064e+11 </wgt>
<wgt id='1387'> +2.7448878e+11 </wgt>
<wgt id='1388'> +2.7177924e+11 </wgt>
<wgt id='1389'> +2.7380475e+11 </wgt>
<wgt id='1390'> +2.7445309e+11 </wgt>
<wgt id='1391'> +2.7323067e+11 </wgt>
<wgt id='1392'> +2.7333317e+11 </wgt>
<wgt id='1393'> +2.7348860e+11 </wgt>
<wgt id='1394'> +2.7319772e+11 </wgt>
<wgt id='1395'> +2.7123701e+11 </wgt>
<wgt id='1396'> +2.7652795e+11 </wgt>
<wgt id='1397'> +2.7609852e+11 </wgt>
<wgt id='1398'> +2.7611783e+11 </wgt>
<wgt id='1399'> +2.7111370e+11 </wgt>
<wgt id='1400'> +2.7254298e+11 </wgt>
<wgt id='1401'> +2.7401390e+11 </wgt>
<wgt id='1402'> +2.7874308e+11 </wgt>
<wgt id='1403'> +2.7861000e+11 </wgt>
<wgt id='1404'> +2.7331522e+11 </wgt>
<wgt id='1405'> +2.8160455e+11 </wgt>
<wgt id='1406'> +2.7524686e+11 </wgt>
<wgt id='1407'> +2.7619209e+11 </wgt>
<wgt id='1408'> +2.7867112e+11 </wgt>
<wgt id='1409'> +2.7339681e+11 </wgt>
<wgt id='1410'> +2.7315733e+11 </wgt>
<wgt id='1411'> +2.7517486e+11 </wgt>
<wgt id='1412'> +2.7436733e+11 </wgt>
<wgt id='1413'> +2.7240567e+11 </wgt>
<wgt id='1414'> +2.7721056e+11 </wgt>
<wgt id='1415'> +2.8127665e+11 </wgt>
<wgt id='1416'> +2.7863088e+11 </wgt>
<wgt id='1417'> +2.6880511e+11 </wgt>
<wgt id='1418'> +2.7715259e+11 </wgt>
<wgt id='1419'> +2.7903258e+11 </wgt>
<wgt id='1420'> +2.7472371e+11 </wgt>
<wgt id='1421'> +2.8154515e+11 </wgt>
<wgt id='1422'> +2.6791779e+11 </wgt>
<wgt id='1423'> +2.8073759e+11 </wgt>
<wgt id='1424'> +2.7651385e+11 </wgt>
<wgt id='1425'> +2.7570881e+11 </wgt>
<wgt id='1426'> +2.7903551e+11 </wgt>
<wgt id='1427'> +2.7545313e+11 </wgt>
<wgt id='1428'> +2.7534270e+11 </wgt>
<wgt id='1429'> +2.7136129e+11 </wgt>
<wgt id='1430'> +2.7075460e+11 </wgt>
<wgt id='1431'> +2.7078635e+11 </wgt>
<wgt id='1432'> +2.7741361e+11 </wgt>
<wgt id='1433'> +2.7612871e+11 </wgt>
<wgt id='1434'> +2.8218860e+11 </wgt>
<wgt id='1435'> +2.7462436e+11 </wgt>
<wgt id='1436'> +2.7964940e+11 </wgt>
<wgt id='1437'> +2.7817851e+11 </wgt>
<wgt id='1438'> +2.7353434e+11 </wgt>
<wgt id='1439'> +2.7621766e+11 </wgt>
<wgt id='1440'> +2.8008406e+11 </wgt>
<wgt id='1441'> +2.7539294e+11 </wgt>
<wgt id='1442'> +2.8313068e+11 </wgt>
<wgt id='1443'> +2.7366497e+11 </wgt>
<wgt id='1444'> +2.7381796e+11 </wgt>
<wgt id='1445'> +2.7845380e+11 </wgt>
<wgt id='1446'> +2.7773081e+11 </wgt>
<wgt id='1447'> +2.7149736e+11 </wgt>
<wgt id='1448'> +2.7785005e+11 </wgt>
<wgt id='1449'> +2.7684637e+11 </wgt>
<wgt id='1450'> +2.7361622e+11 </wgt>
<wgt id='1451'> +2.7674230e+11 </wgt>
<wgt id='1452'> +2.7867385e+11 </wgt>
<wgt id='1453'> +2.8051759e+11 </wgt>
<wgt id='1454'> +2.6886217e+11 </wgt>
<wgt id='1455'> +2.7473101e+11 </wgt>
<wgt id='1456'> +2.7472822e+11 </wgt>
<wgt id='1457'> +2.7426922e+11 </wgt>
<wgt id='1458'> +2.7738773e+11 </wgt>
<wgt id='1459'> +3.0480137e+11 </wgt>
<wgt id='1460'> +3.0012799e+11 </wgt>
<wgt id='1461'> +3.4723825e+11 </wgt>
<wgt id='1462'> +2.9960843e+11 </wgt>
<wgt id='1463'> +2.9985841e+11 </wgt>
<wgt id='1464'> +2.9928785e+11 </wgt>
<wgt id='1465'> +2.9966983e+11 </wgt>
<wgt id='1466'> +2.9955234e+11 </wgt>
<wgt id='1467'> +2.9977160e+11 </wgt>
<wgt id='1468'> +2.9934073e+11 </wgt>
<wgt id='1469'> +2.9915786e+11 </wgt>
<wgt id='1470'> +2.9997439e+11 </wgt>
<wgt id='1471'> +3.0008705e+11 </wgt>
<wgt id='1472'> +2.9911547e+11 </wgt>
<wgt id='1473'> +3.0075883e+11 </wgt>
<wgt id='1474'> +2.9850349e+11 </wgt>
<wgt id='1475'> +3.0070644e+11 </wgt>
<wgt id='1476'> +2.9882995e+11 </wgt>
<wgt id='1477'> +2.9903487e+11 </wgt>
<wgt id='1478'> +3.0094823e+11 </wgt>
<wgt id='1479'> +2.9903207e+11 </wgt>
<wgt id='1480'> +3.0001076e+11 </wgt>
<wgt id='1481'> +2.9918799e+11 </wgt>
<wgt id='1482'> +3.0017539e+11 </wgt>
<wgt id='1483'> +2.9970662e+11 </wgt>
<wgt id='1484'> +2.9946897e+11 </wgt>
<wgt id='1485'> +2.9980955e+11 </wgt>
<wgt id='1486'> +2.9912410e+11 </wgt>
<wgt id='1487'> +2.9985717e+11 </wgt>
<wgt id='1488'> +2.9929556e+11 </wgt>
<wgt id='1489'> +2.9925722e+11 </wgt>
<wgt id='1490'> +3.0056054e+11 </wgt>
<wgt id='1491'> +3.0452803e+11 </wgt>
<wgt id='1492'> +2.9686249e+11 </wgt>
<wgt id='1493'> +2.9611174e+11 </wgt>
<wgt id='1494'> +3.1056697e+11 </wgt>
<wgt id='1495'> +2.9897568e+11 </wgt>
<wgt id='1496'> +3.0028710e+11 </wgt>
<wgt id='1497'> +2.9980730e+11 </wgt>
<wgt id='1498'> +2.9933663e+11 </wgt>
<wgt id='1499'> +3.0147458e+11 </wgt>
<wgt id='1500'> +2.9858749e+11 </wgt>
<wgt id='1501'> +3.0007426e+11 </wgt>
<wgt id='1502'> +2.9837374e+11 </wgt>
<wgt id='1503'> +2.9648374e+11 </wgt>
<wgt id='1504'> +3.0292133e+11 </wgt>
<wgt id='1505'> +3.0063900e+11 </wgt>
<wgt id='1506'> +2.9861892e+11 </wgt>
<wgt id='1507'> +3.0089226e+11 </wgt>
<wgt id='1508'> +2.9892000e+11 </wgt>
<wgt id='1509'> +3.0017992e+11 </wgt>
<wgt id='1510'> +2.9715594e+11 </wgt>
<wgt id='1511'> +3.0071483e+11 </wgt>
<wgt id='1512'> +2.9929683e+11 </wgt>
<wgt id='1513'> +2.9952989e+11 </wgt>
<wgt id='1514'> +2.9967939e+11 </wgt>
<wgt id='1515'> +3.0200250e+11 </wgt>
<wgt id='1516'> +3.0007751e+11 </wgt>
<wgt id='1517'> +2.9923769e+11 </wgt>
<wgt id='1518'> +2.9991025e+11 </wgt>
<wgt id='1519'> +2.9798663e+11 </wgt>
<wgt id='1520'> +3.0076281e+11 </wgt>
<wgt id='1521'> +2.9884814e+11 </wgt>
<wgt id='1522'> +3.0006542e+11 </wgt>
<wgt id='1523'> +3.0097691e+11 </wgt>
<wgt id='1524'> +3.0095895e+11 </wgt>
<wgt id='1525'> +3.0085358e+11 </wgt>
<wgt id='1526'> +3.0037857e+11 </wgt>
<wgt id='1527'> +2.9960843e+11 </wgt>
<wgt id='1528'> +2.9944072e+11 </wgt>
<wgt id='1529'> +2.9924613e+11 </wgt>
<wgt id='1530'> +2.9548543e+11 </wgt>
<wgt id='1531'> +2.9624952e+11 </wgt>
<wgt id='1532'> +2.9386095e+11 </wgt>
<wgt id='1533'> +2.9184874e+11 </wgt>
<wgt id='1534'> +2.9463518e+11 </wgt>
<wgt id='1535'> +2.9872185e+11 </wgt>
<wgt id='1536'> +2.9320550e+11 </wgt>
<wgt id='1537'> +2.9614160e+11 </wgt>
<wgt id='1538'> +2.9308588e+11 </wgt>
<wgt id='1539'> +3.0247044e+11 </wgt>
<wgt id='1540'> +2.9539400e+11 </wgt>
<wgt id='1541'> +2.9638577e+11 </wgt>
<wgt id='1542'> +2.9615671e+11 </wgt>
<wgt id='1543'> +2.9728856e+11 </wgt>
<wgt id='1544'> +2.9434741e+11 </wgt>
<wgt id='1545'> +2.9429162e+11 </wgt>
<wgt id='1546'> +2.9235025e+11 </wgt>
<wgt id='1547'> +2.9854376e+11 </wgt>
<wgt id='1548'> +2.9424475e+11 </wgt>
<wgt id='1549'> +2.9290746e+11 </wgt>
<wgt id='1550'> +2.9686058e+11 </wgt>
<wgt id='1551'> +2.9689215e+11 </wgt>
<wgt id='1552'> +2.9557289e+11 </wgt>
<wgt id='1553'> +2.9806213e+11 </wgt>
<wgt id='1554'> +2.9609120e+11 </wgt>
<wgt id='1555'> +2.9685082e+11 </wgt>
<wgt id='1556'> +2.9861101e+11 </wgt>
<wgt id='1557'> +2.9550729e+11 </wgt>
<wgt id='1558'> +2.9622992e+11 </wgt>
<wgt id='1559'> +2.9422471e+11 </wgt>
<wgt id='1560'> +2.9503229e+11 </wgt>
<wgt id='1561'> +2.9231741e+11 </wgt>
<wgt id='1562'> +2.9481470e+11 </wgt>
<wgt id='1563'> +2.9617636e+11 </wgt>
<wgt id='1564'> +2.9586353e+11 </wgt>
<wgt id='1565'> +2.9843630e+11 </wgt>
<wgt id='1566'> +2.9653633e+11 </wgt>
<wgt id='1567'> +2.9981014e+11 </wgt>
<wgt id='1568'> +2.9619307e+11 </wgt>
<wgt id='1569'> +2.9588760e+11 </wgt>
<wgt id='1570'> +2.9805221e+11 </wgt>
<wgt id='1571'> +2.9603794e+11 </wgt>
<wgt id='1572'> +2.9796164e+11 </wgt>
<wgt id='1573'> +2.9905434e+11 </wgt>
<wgt id='1574'> +2.6564605e+11 </wgt>
<wgt id='1575'> +2.6571847e+11 </wgt>
<wgt id='1576'> +2.6557829e+11 </wgt>
<wgt id='1577'> +2.6566436e+11 </wgt>
<wgt id='1578'> +2.6625723e+11 </wgt>
<wgt id='1579'> +2.6651311e+11 </wgt>
<wgt id='1580'> +2.6628559e+11 </wgt>
<wgt id='1581'> +2.6501636e+11 </wgt>
<wgt id='1582'> +2.6470812e+11 </wgt>
<wgt id='1583'> +2.6520426e+11 </wgt>
<wgt id='1584'> +2.6622594e+11 </wgt>
<wgt id='1585'> +2.6583436e+11 </wgt>
<wgt id='1586'> +2.6461851e+11 </wgt>
<wgt id='1587'> +2.6487654e+11 </wgt>
<wgt id='1588'> +2.6437173e+11 </wgt>
<wgt id='1589'> +2.6539556e+11 </wgt>
<wgt id='1590'> +2.6545770e+11 </wgt>
<wgt id='1591'> +2.6571381e+11 </wgt>
<wgt id='1592'> +2.6461196e+11 </wgt>
<wgt id='1593'> +2.6478165e+11 </wgt>
<wgt id='1594'> +2.6645731e+11 </wgt>
<wgt id='1595'> +2.6341541e+11 </wgt>
<wgt id='1596'> +2.6922108e+11 </wgt>
<wgt id='1597'> +2.6737961e+11 </wgt>
<wgt id='1598'> +2.6760673e+11 </wgt>
<wgt id='1599'> +2.6290549e+11 </wgt>
<wgt id='1600'> +2.7006464e+11 </wgt>
<wgt id='1601'> +2.6778894e+11 </wgt>
<wgt id='1602'> +2.6570368e+11 </wgt>
<wgt id='1603'> +2.7604535e+11 </wgt>
<wgt id='1604'> +2.6569041e+11 </wgt>
</rwgt>
</event>
<event>
 9      1 +2.8343000e+11 1.39998300e+03 7.81738600e-03 7.88882200e-02
       21 -1    0    0  504  503 +0.0000000000e+00 +0.0000000000e+00 +6.3066338198e+02 6.3066338198e+02 0.0000000000e+00 0.0000e+00 -1.0000e+00
       21 -1    0    0  503  504 -0.0000000000e+00 -0.0000000000e+00 -7.7694126822e+02 7.7694126822e+02 0.0000000000e+00 0.0000e+00 -1.0000e+00
       45  2    1    2    0    0 +0.0000000000e+00 +0.0000000000e+00 -1.4627788623e+02 1.4076046502e+03 1.3999834396e+03 0.0000e+00 0.0000e+00
       25  2    3    3    0    0 -6.0190370119e+02 +8.2039789318e+00 -4.1553182259e+02 7.4205744263e+02 1.2500872690e+02 0.0000e+00 0.0000e+00
       35  2    3    3    0    0 +6.0190370119e+02 -8.2039789318e+00 +2.6925393636e+02 6.6554720757e+02 9.0000180432e+01 0.0000e+00 0.0000e+00
        5  1    5    5  501    0 +3.4191640971e+02 -3.7125343765e+01 +1.8583909251e+02 3.9094634988e+02 4.2140000000e+00 0.0000e+00 1.0000e+00
       -5  1    5    5    0  501 +2.5998729148e+02 +2.8921364833e+01 +8.3414843846e+01 2.7460085769e+02 4.2140000000e+00 0.0000e+00 1.0000e+00
        5  1    4    4  502    0 -4.2274145823e+02 -5.0798692250e+01 -2.7673683522e+02 5.0783056367e+02 4.2140000000e+00 0.0000e+00 1.0000e+00
       -5  1    4    4    0  502 -1.7916224296e+02 +5.9002671182e+01 -1.3879498737e+02 2.3422687896e+02 4.2140000000e+00 0.0000e+00 1.0000e+00
<mgrwt>
<rscale>  0 0.13999834E+04</rscale>
<asrwt>0</asrwt>
<pdfrwt beam="1">  1       21 0.97025135E-01 0.13999834E+04</pdfrwt>
<pdfrwt beam="2">  1       21 0.11952943E+00 0.13999834E+04</pdfrwt>
<totfact> 0.35555221E+02</totfact>
</mgrwt>
<rwgt>
<wgt id='1001'> +2.8343000e+11 </wgt>
<wgt id='1002'> +2.8972435e+11 </wgt>
<wgt id='1003'> +2.8972314e+11 </wgt>
<wgt id='1004'> +3.2526621e+11 </wgt>
<wgt id='1005'> +2.8343000e+11 </wgt>
<wgt id='1006'> +2.8343000e+11 </wgt>
<wgt id='1007'> +2.8972435e+11 </wgt>
<wgt id='1008'> +2.8972314e+11 </wgt>
<wgt id='1009'> +3.2526621e+11 </wgt>
<wgt id='1010'> +2.8343000e+11 </wgt>
<wgt id='1011'> +2.8343000e+11 </wgt>
<wgt id='1012'> +2.8972435e+11 </wgt>
<wgt id='1013'> +2.8972314e+11 </wgt>
<wgt id='1014'> +3.2526621e+11 </wgt>
<wgt id='1015'> +2.8343000e+11 </wgt>
<wgt id='1016'> +2.5466821e+11 </wgt>
<wgt id='1017'> +2.5999747e+11 </wgt>
<wgt id='1018'> +2.5999644e+11 </wgt>
<wgt id='1019'> +2.8972314e+11 </wgt>
<wgt id='1020'> +2.5466821e+11 </wgt>
<wgt id='1021'> +2.5466821e+11 </wgt>
<wgt id='1022'> +2.5999747e+11 </wgt>
<wgt id='1023'> +2.5999644e+11 </wgt>
<wgt id='1024'> +2.8972314e+11 </wgt>
<wgt id='1025'> +2.5466821e+11 </wgt>
<wgt id='1026'> +2.5466821e+11 </wgt>
<wgt id='1027'> +2.5999747e+11 </wgt>
<wgt id='1028'> +2.5999644e+11 </wgt>
<wgt id='1029'> +2.8972314e+11 </wgt>
<wgt id='1030'> +2.5466821e+11 </wgt>
<wgt id='1031'> +3.1770771e+11 </wgt>
<wgt id='1032'> +3.2526766e+11 </wgt>
<wgt id='1033'> +3.2526621e+11 </wgt>
<wgt id='1034'> +3.6807855e+11 </wgt>
<wgt id='1035'> +3.1770771e+11 </wgt>
<wgt id='1036'> +3.1770771e+11 </wgt>
<wgt id='1037'> +3.2526766e+11 </wgt>
<wgt id='1038'> +3.2526621e+11 </wgt>
<wgt id='1039'> +3.6807855e+11 </wgt>
<wgt id='1040'> +3.1770771e+11 </wgt>
<wgt id='1041'> +3.1770771e+11 </wgt>
<wgt id='1042'> +3.2526766e+11 </wgt>
<wgt id='1043'> +3.2526621e+11 </wgt>
<wgt id='1044'> +3.6807855e+11 </wgt>
<wgt id='1045'> +3.1770771e+11 </wgt>
<wgt id='1046'> +2.8343000e+11 </wgt>
<wgt id='1047'> +2.8343000e+11 </wgt>
<wgt id='1048'> +2.8343000e+11 </wgt>
<wgt id='1049'> +2.8229419e+11 </wgt>
<wgt id='1050'> +2.8306173e+11 </wgt>
<wgt id='1051'> +2.8372270e+11 </wgt>
<wgt id='1052'> +2.8421759e+11 </wgt>
<wgt id='1053'> +2.8188542e+11 </wgt>
<wgt id='1054'> +2.8387490e+11 </wgt>
<wgt id='1055'> +2.8225142e+11 </wgt>
<wgt id='1056'> +2.8183188e+11 </wgt>
<wgt id='1057'> +2.8418654e+11 </wgt>
<wgt id='1058'> +2.8304586e+11 </wgt>
<wgt id='1059'> +2.8540631e+11 </wgt>
<wgt id='1060'> +2.8365916e+11 </wgt>
<wgt id='1061'> +2.8419084e+11 </wgt>
<wgt id='1062'> +2.8402196e+11 </wgt>
<wgt id='1063'> +2.8369113e+11 </wgt>
<wgt id='1064'> +2.8466430e+11 </wgt>
<wgt id='1065'> +2.8486183e+11 </wgt>
<wgt id='1066'> +2.8194656e+11 </wgt>
<wgt id='1067'> +2.7978043e+11 </wgt>
<wgt id='1068'> +2.8378289e+11 </wgt>
<wgt id='1069'> +2.8276167e+11 </wgt>
<wgt id='1070'> +2.8345538e+11 </wgt>
<wgt id='1071'> +2.8482674e+11 </wgt>
<wgt id='1072'> +2.8114874e+11 </wgt>
<wgt id='1073'> +2.8409684e+11 </wgt>
<wgt id='1074'> +2.8308671e+11 </wgt>
<wgt id='1075'> +2.8441946e+11 </wgt>
<wgt id='1076'> +2.8313842e+11 </wgt>
<wgt id='1077'> +2.8291145e+11 </wgt>
<wgt id='1078'> +2.8410138e+11 </wgt>
<wgt id='1079'> +2.8180953e+11 </wgt>
<wgt id='1080'> +2.8279659e+11 </wgt>
<wgt id='1081'> +2.8301312e+11 </wgt>
<wgt id='1082'> +2.8205146e+11 </wgt>
<wgt id='1083'> +2.8398860e+11 </wgt>
<wgt id='1084'> +2.8406862e+11 </wgt>
<wgt id='1085'> +2.8285136e+11 </wgt>
<wgt id='1086'> +2.8282085e+11 </wgt>
<wgt id='1087'> +2.8308322e+11 </wgt>
<wgt id='1088'> +2.8294141e+11 </wgt>
<wgt id='1089'> +2.8279834e+11 </wgt>
<wgt id='1090'> +2.8413609e+11 </wgt>
<wgt id='1091'> +2.8349689e+11 </wgt>
<wgt id='1092'> +2.8369048e+11 </wgt>
<wgt id='1093'> +2.8332236e+11 </wgt>
<wgt id='1094'> +2.8289759e+11 </wgt>
<wgt id='1095'> +2.8354799e+11 </wgt>
<wgt id='1096'> +2.8337531e+11 </wgt>
<wgt id='1097'> +2.8303275e+11 </wgt>
<wgt id='1098'> +2.8307681e+11 </wgt>
<wgt id='1099'> +2.8322409e+11 </wgt>
<wgt id='1100'> +2.8401795e+11 </wgt>
<wgt id='1101'> +2.8340860e+11 </wgt>
<wgt id='1102'> +2.8328258e+11 </wgt>
<wgt id='1103'> +2.8310559e+11 </wgt>
<wgt id='1104'> +2.8310420e+11 </wgt>
<wgt id='1105'> +2.8354008e+11 </wgt>
<wgt id='1106'> +2.8376034e+11 </wgt>
<wgt id='1107'> +2.8333508e+11 </wgt>
<wgt id='1108'> +2.8333834e+11 </wgt>
<wgt id='1109'> +2.8323568e+11 </wgt>
<wgt id='1110'> +2.8376023e+11 </wgt>
<wgt id='1111'> +2.8356018e+11 </wgt>
<wgt id='1112'> +2.8339812e+11 </wgt>
<wgt id='1113'> +2.8373957e+11 </wgt>
<wgt id='1114'> +2.8311243e+11 </wgt>
<wgt id='1115'> +2.8325207e+11 </wgt>
<wgt id='1116'> +2.8373979e+11 </wgt>
<wgt id='1117'> +2.8337186e+11 </wgt>
<wgt id='1118'> +2.8353217e+11 </wgt>
<wgt id='1119'> +2.8325304e+11 </wgt>
<wgt id='1120'> +2.8328299e+11 </wgt>
<wgt id='1121'> +2.8349418e+11 </wgt>
<wgt id='1122'> +2.8322750e+11 </wgt>
<wgt id='1123'> +2.8337426e+11 </wgt>
<wgt id='1124'> +2.8334278e+11 </wgt>
<wgt id='1125'> +2.8358943e+11 </wgt>
<wgt id='1126'> +2.8353596e+11 </wgt>
<wgt id='1127'> +2.8332215e+11 </wgt>
<wgt id='1128'> +2.8347152e+11 </wgt>
<wgt id='1129'> +2.8338713e+11 </wgt>
<wgt id='1130'> +2.8346304e+11 </wgt>
<wgt id='1131'> +2.8369887e+11 </wgt>
<wgt id='1132'> +2.8335166e+11 </wgt>
<wgt id='1133'> +2.8350662e+11 </wgt>
<wgt id='1134'> +2.8340989e+11 </wgt>
<wgt id='1135'> +2.8346922e+11 </wgt>
<wgt id='1136'> +2.8339713e+11 </wgt>
<wgt id='1137'> +2.8328583e+11 </wgt>
<wgt id='1138'> +2.8354353e+11 </wgt>
<wgt id='1139'> +2.8346824e+11 </wgt>
<wgt id='1140'> +2.8364144e+11 </wgt>
<wgt id='1141'> +2.8330280e+11 </wgt>
<wgt id='1142'> +2.8350059e+11 </wgt>
<wgt id='1143'> +2.8359534e+11 </wgt>
<wgt id='1144'> +2.8334459e+11 </wgt>
<wgt id='1145'> +2.8355397e+11 </wgt>
<wgt id='1146'> +2.8341134e+11 </wgt>
<wgt id='1147'> +2.8347578e+11 </wgt>
<wgt id='1148'> +2.8343000e+11 </wgt>
<wgt id='1149'> +2.8343000e+11 </wgt>
<wgt id='1150'> +2.9144811e+11 </wgt>
<wgt id='1151'> +2.8110092e+11 </wgt>
<wgt id='1152'> +2.8513839e+11 </wgt>
<wgt id='1153'> +2.8766205e+11 </wgt>
<wgt id='1154'> +2.8731215e+11 </wgt>
<wgt id='1155'> +2.8850397e+11 </wgt>
<wgt id='1156'> +2.7657234e+11 </wgt>
<wgt id='1157'> +2.7656371e+11 </wgt>
<wgt id='1158'> +2.7762336e+11 </wgt>
<wgt id='1159'> +2.9633406e+11 </wgt>
<wgt id='1160'> +2.8167497e+11 </wgt>
<wgt id='1161'> +2.8553160e+11 </wgt>
<wgt id='1162'> +2.7659336e+11 </wgt>
<wgt id='1163'> +2.8681677e+11 </wgt>
<wgt id='1164'> +2.6766377e+11 </wgt>
<wgt id='1165'> +2.7926494e+11 </wgt>
<wgt id='1166'> +2.8495961e+11 </wgt>
<wgt id='1167'> +2.7986664e+11 </wgt>
<wgt id='1168'> +2.7649262e+11 </wgt>
<wgt id='1169'> +2.7594947e+11 </wgt>
<wgt id='1170'> +2.7624731e+11 </wgt>
<wgt id='1171'> +2.7344351e+11 </wgt>
<wgt id='1172'> +2.7748777e+11 </wgt>
<wgt id='1173'> +2.8790920e+11 </wgt>
<wgt id='1174'> +2.7958801e+11 </wgt>
<wgt id='1175'> +2.7530973e+11 </wgt>
<wgt id='1176'> +2.8637618e+11 </wgt>
<wgt id='1177'> +2.7921349e+11 </wgt>
<wgt id='1178'> +2.8314203e+11 </wgt>
<wgt id='1179'> +2.8029797e+11 </wgt>
<wgt id='1180'> +2.8407302e+11 </wgt>
<wgt id='1181'> +2.7671304e+11 </wgt>
<wgt id='1182'> +2.8158005e+11 </wgt>
<wgt id='1183'> +2.9559972e+11 </wgt>
<wgt id='1184'> +2.7662136e+11 </wgt>
<wgt id='1185'> +2.8103407e+11 </wgt>
<wgt id='1186'> +2.7182980e+11 </wgt>
<wgt id='1187'> +2.8568196e+11 </wgt>
<wgt id='1188'> +2.7755375e+11 </wgt>
<wgt id='1189'> +2.8550765e+11 </wgt>
<wgt id='1190'> +2.8415185e+11 </wgt>
<wgt id='1191'> +2.9508196e+11 </wgt>
<wgt id='1192'> +2.9177218e+11 </wgt>
<wgt id='1193'> +2.9527474e+11 </wgt>
<wgt id='1194'> +2.8454262e+11 </wgt>
<wgt id='1195'> +2.8375774e+11 </wgt>
<wgt id='1196'> +2.9234258e+11 </wgt>
<wgt id='1197'> +2.9398829e+11 </wgt>
<wgt id='1198'> +2.7555855e+11 </wgt>
<wgt id='1199'> +2.8216738e+11 </wgt>
<wgt id='1200'> +2.8240400e+11 </wgt>
<wgt id='1201'> +2.7934759e+11 </wgt>
<wgt id='1202'> +2.8861531e+11 </wgt>
<wgt id='1203'> +2.7768442e+11 </wgt>
<wgt id='1204'> +2.8819890e+11 </wgt>
<wgt id='1205'> +2.8505817e+11 </wgt>
<wgt id='1206'> +2.7655465e+11 </wgt>
<wgt id='1207'> +2.9308069e+11 </wgt>
<wgt id='1208'> +2.7278591e+11 </wgt>
<wgt id='1209'> +2.7875450e+11 </wgt>
<wgt id='1210'> +2.8042236e+11 </wgt>
<wgt id='1211'> +2.8574342e+11 </wgt>
<wgt id='1212'> +2.8364724e+11 </wgt>
<wgt id='1213'> +2.9334211e+11 </wgt>
<wgt id='1214'> +2.7573230e+11 </wgt>
<wgt id='1215'> +2.9188576e+11 </wgt>
<wgt id='1216'> +2.8599098e+11 </wgt>
<wgt id='1217'> +2.7593528e+11 </wgt>
<wgt id='1218'> +2.8477440e+11 </wgt>
<wgt id='1219'> +2.9438833e+11 </wgt>
<wgt id='1220'> +2.7712011e+11 </wgt>
<wgt id='1221'> +2.7506772e+11 </wgt>
<wgt id='1222'> +2.8034999e+11 </wgt>
<wgt id='1223'> +2.7260694e+11 </wgt>
<wgt id='1224'> +2.8351581e+11 </wgt>
<wgt id='1225'> +2.8812515e+11 </wgt>
<wgt id='1226'> +2.9057966e+11 </wgt>
<wgt id='1227'> +2.7318781e+11 </wgt>
<wgt id='1228'> +2.8139210e+11 </wgt>
<wgt id='1229'> +3.0281157e+11 </wgt>
<wgt id='1230'> +2.9407600e+11 </wgt>
<wgt id='1231'> +2.7926494e+11 </wgt>
<wgt id='1232'> +2.8907825e+11 </wgt>
<wgt id='1233'> +2.7811189e+11 </wgt>
<wgt id='1234'> +2.7635638e+11 </wgt>
<wgt id='1235'> +3.0294439e+11 </wgt>
<wgt id='1236'> +2.7660137e+11 </wgt>
<wgt id='1237'> +2.8980088e+11 </wgt>
<wgt id='1238'> +2.8952136e+11 </wgt>
<wgt id='1239'> +2.9192718e+11 </wgt>
<wgt id='1240'> +2.8538544e+11 </wgt>
<wgt id='1241'> +2.8204859e+11 </wgt>
<wgt id='1242'> +2.8072281e+11 </wgt>
<wgt id='1243'> +2.8889466e+11 </wgt>
<wgt id='1244'> +2.8128103e+11 </wgt>
<wgt id='1245'> +2.8177318e+11 </wgt>
<wgt id='1246'> +3.0718245e+11 </wgt>
<wgt id='1247'> +2.8365693e+11 </wgt>
<wgt id='1248'> +2.7530830e+11 </wgt>
<wgt id='1249'> +2.7760650e+11 </wgt>
<wgt id='1250'> +2.9213252e+11 </wgt>
<wgt id='1251'> +2.9869565e+11 </wgt>
<wgt id='1252'> +2.8714164e+11 </wgt>
<wgt id='1253'> +2.8526780e+11 </wgt>
<wgt id='1254'> +2.8859486e+11 </wgt>
<wgt id='1255'> +2.9802905e+11 </wgt>
<wgt id='1256'> +2.9542504e+11 </wgt>
<wgt id='1257'> +2.8581138e+11 </wgt>
<wgt id='1258'> +3.0007543e+11 </wgt>
<wgt id='1259'> +2.9476060e+11 </wgt>
<wgt id='1260'> +3.2543696e+11 </wgt>
<wgt id='1261'> +3.1372060e+11 </wgt>
<wgt id='1262'> +2.8964632e+11 </wgt>
<wgt id='1263'> +2.9670941e+11 </wgt>
<wgt id='1264'> +2.9855846e+11 </wgt>
<wgt id='1265'> +2.9860234e+11 </wgt>
<wgt id='1266'> +2.9441385e+11 </wgt>
<wgt id='1267'> +3.1584507e+11 </wgt>
<wgt id='1268'> +2.9409468e+11 </wgt>
<wgt id='1269'> +2.8715232e+11 </wgt>
<wgt id='1270'> +2.9150788e+11 </wgt>
<wgt id='1271'> +2.7917458e+11 </wgt>
<wgt id='1272'> +2.9328449e+11 </wgt>
<wgt id='1273'> +2.9182310e+11 </wgt>
<wgt id='1274'> +2.8756306e+11 </wgt>
<wgt id='1275'> +2.9841522e+11 </wgt>
<wgt id='1276'> +2.9551420e+11 </wgt>
<wgt id='1277'> +2.9088378e+11 </wgt>
<wgt id='1278'> +2.8672993e+11 </wgt>
<wgt id='1279'> +2.8113888e+11 </wgt>
<wgt id='1280'> +2.9366247e+11 </wgt>
<wgt id='1281'> +2.8575972e+11 </wgt>
<wgt id='1282'> +2.9655952e+11 </wgt>
<wgt id='1283'> +2.9629371e+11 </wgt>
<wgt id='1284'> +3.1467993e+11 </wgt>
<wgt id='1285'> +3.0815272e+11 </wgt>
<wgt id='1286'> +3.2864253e+11 </wgt>
<wgt id='1287'> +3.0323166e+11 </wgt>
<wgt id='1288'> +3.2364742e+11 </wgt>
<wgt id='1289'> +3.1294883e+11 </wgt>
<wgt id='1290'> +3.1136803e+11 </wgt>
<wgt id='1291'> +2.7786491e+11 </wgt>
<wgt id='1292'> +2.9742515e+11 </wgt>
<wgt id='1293'> +3.0016155e+11 </wgt>
<wgt id='1294'> +3.1441481e+11 </wgt>
<wgt id='1295'> +2.9837879e+11 </wgt>
<wgt id='1296'> +3.1545603e+11 </wgt>
<wgt id='1297'> +2.9542437e+11 </wgt>
<wgt id='1298'> +2.8770225e+11 </wgt>
<wgt id='1299'> +2.9858916e+11 </wgt>
<wgt id='1300'> +2.8799146e+11 </wgt>
<wgt id='1301'> +2.8082917e+11 </wgt>
<wgt id='1302'> +2.7587095e+11 </wgt>
<wgt id='1303'> +2.9838470e+11 </wgt>
<wgt id='1304'> +3.0617847e+11 </wgt>
<wgt id='1305'> +2.9827969e+11 </wgt>
<wgt id='1306'> +3.0515821e+11 </wgt>
<wgt id='1307'> +3.0347874e+11 </wgt>
<wgt id='1308'> +3.2532296e+11 </wgt>
<wgt id='1309'> +2.9579747e+11 </wgt>
<wgt id='1310'> +3.0214499e+11 </wgt>
<wgt id='1311'> +3.0782548e+11 </wgt>
<wgt id='1312'> +2.9916158e+11 </wgt>
<wgt id='1313'> +2.9687883e+11 </wgt>
<wgt id='1314'> +3.0402581e+11 </wgt>
<wgt id='1315'> +2.8488334e+11 </wgt>
<wgt id='1316'> +2.9848791e+11 </wgt>
<wgt id='1317'> +3.0134021e+11 </wgt>
<wgt id='1318'> +2.8642239e+11 </wgt>
<wgt id='1319'> +3.0752120e+11 </wgt>
<wgt id='1320'> +3.0906183e+11 </wgt>
<wgt id='1321'> +2.9371351e+11 </wgt>
<wgt id='1322'> +2.9778377e+11 </wgt>
<wgt id='1323'> +2.9849926e+11 </wgt>
<wgt id='1324'> +3.0124206e+11 </wgt>
<wgt id='1325'> +3.1087883e+11 </wgt>
<wgt id='1326'> +3.0286239e+11 </wgt>
<wgt id='1327'> +2.9362024e+11 </wgt>
<wgt id='1328'> +3.0246260e+11 </wgt>
<wgt id='1329'> +2.9770050e+11 </wgt>
<wgt id='1330'> +2.9061180e+11 </wgt>
<wgt id='1331'> +3.1920125e+11 </wgt>
<wgt id='1332'> +2.8605511e+11 </wgt>
<wgt id='1333'> +3.0051487e+11 </wgt>
<wgt id='1334'> +3.1382454e+11 </wgt>
<wgt id='1335'> +2.9247023e+11 </wgt>
<wgt id='1336'> +3.0235473e+11 </wgt>
<wgt id='1337'> +3.0841712e+11 </wgt>
<wgt id='1338'> +2.8975534e+11 </wgt>
<wgt id='1339'> +3.2023036e+11 </wgt>
<wgt id='1340'> +3.0159879e+11 </wgt>
<wgt id='1341'> +3.0490772e+11 </wgt>
<wgt id='1342'> +3.1542022e+11 </wgt>
<wgt id='1343'> +3.1018904e+11 </wgt>
<wgt id='1344'> +3.0349015e+11 </wgt>
<wgt id='1345'> +2.7985173e+11 </wgt>
<wgt id='1346'> +2.9947457e+11 </wgt>
<wgt id='1347'> +2.8677807e+11 </wgt>
<wgt id='1348'> +2.8796106e+11 </wgt>
<wgt id='1349'> +2.8972391e+11 </wgt>
<wgt id='1350'> +3.0044635e+11 </wgt>
<wgt id='1351'> +2.9666586e+11 </wgt>
<wgt id='1352'> +3.0044200e+11 </wgt>
<wgt id='1353'> +2.9712250e+11 </wgt>
<wgt id='1354'> +3.0685797e+11 </wgt>
<wgt id='1355'> +2.7550897e+11 </wgt>
<wgt id='1356'> +2.7826173e+11 </wgt>
<wgt id='1357'> +2.7638380e+11 </wgt>
<wgt id='1358'> +2.7293133e+11 </wgt>
<wgt id='1359'> +2.7626173e+11 </wgt>
<wgt id='1360'> +2.6874679e+11 </wgt>
<wgt id='1361'> +2.7553898e+11 </wgt>
<wgt id='1362'> +2.7740480e+11 </wgt>
<wgt id='1363'> +2.6940194e+11 </wgt>
<wgt id='1364'> +2.8174841e+11 </wgt>
<wgt id='1365'> +2.7318153e+11 </wgt>
<wgt id='1366'> +2.7560274e+11 </wgt>
<wgt id='1367'> +2.7635805e+11 </wgt>
<wgt id='1368'> +2.7555052e+11 </wgt>
<wgt id='1369'> +2.7977607e+11 </wgt>
<wgt id='1370'> +2.7363931e+11 </wgt>
<wgt id='1371'> +2.7323054e+11 </wgt>
<wgt id='1372'> +2.8000310e+11 </wgt>
<wgt id='1373'> +2.7914726e+11 </wgt>
<wgt id='1374'> +2.6740912e+11 </wgt>
<wgt id='1375'> +2.7442483e+11 </wgt>
<wgt id='1376'> +2.7638712e+11 </wgt>
<wgt id='1377'> +2.7544468e+11 </wgt>
<wgt id='1378'> +2.7134083e+11 </wgt>
<wgt id='1379'> +2.7397715e+11 </wgt>
<wgt id='1380'> +2.7391665e+11 </wgt>
<wgt id='1381'> +2.8082265e+11 </wgt>
<wgt id='1382'> +2.7513513e+11 </wgt>
<wgt id='1383'> +2.7545336e+11 </wgt>
<wgt id='1384'> +2.7385732e+11 </wgt>
<wgt id='1385'> +2.7402611e+11 </wgt>
<wgt id='1386'> +2.7743857e+11 </wgt>
<wgt id='1387'> +2.7450355e+11 </wgt>
<wgt id='1388'> +2.7179218e+11 </wgt>
<wgt id='1389'> +2.7382633e+11 </wgt>
<wgt id='1390'> +2.7448006e+11 </wgt>
<wgt id='1391'> +2.7324816e+11 </wgt>
<wgt id='1392'> +2.7334971e+11 </wgt>
<wgt id='1393'> +2.7351332e+11 </wgt>
<wgt id='1394'> +2.7321726e+11 </wgt>
<wgt id='1395'> +2.7125231e+11 </wgt>
<wgt id='1396'> +2.7654331e+11 </wgt>
<wgt id='1397'> +2.7611730e+11 </wgt>
<wgt id='1398'> +2.7613858e+11 </wgt>
<wgt id='1399'> +2.7113721e+11 </wgt>
<wgt id='1400'> +2.7255525e+11 </wgt>
<wgt id='1401'> +2.7403866e+11 </wgt>
<wgt id='1402'> +2.7875876e+11 </wgt>
<wgt id='1403'> +2.7863828e+11 </wgt>
<wgt id='1404'> +2.7334610e+11 </wgt>
<wgt id='1405'> +2.8162206e+11 </wgt>
<wgt id='1406'> +2.7527035e+11 </wgt>
<wgt id='1407'> +2.7620715e+11 </wgt>
<wgt id='1408'> +2.7869361e+11 </wgt>
<wgt id='1409'> +2.7340864e+11 </wgt>
<wgt id='1410'> +2.7315820e+11 </wgt>
<wgt id='1411'> +2.7519241e+11 </wgt>
<wgt id='1412'> +2.7437958e+11 </wgt>
<wgt id='1413'> +2.7242477e+11 </wgt>
<wgt id='1414'> +2.7723204e+11 </wgt>
<wgt id='1415'> +2.8128576e+11 </wgt>
<wgt id='1416'> +2.7864532e+11 </wgt>
<wgt id='1417'> +2.6883299e+11 </wgt>
<wgt id='1418'> +2.7716453e+11 </wgt>
<wgt id='1419'> +2.7905218e+11 </wgt>
<wgt id='1420'> +2.7473860e+11 </wgt>
<wgt id='1421'> +2.8156270e+11 </wgt>
<wgt id='1422'> +2.6793913e+11 </wgt>
<wgt id='1423'> +2.8075400e+11 </wgt>
<wgt id='1424'> +2.7653306e+11 </wgt>
<wgt id='1425'> +2.7572868e+11 </wgt>
<wgt id='1426'> +2.7904659e+11 </wgt>
<wgt id='1427'> +2.7546912e+11 </wgt>
<wgt id='1428'> +2.7535844e+11 </wgt>
<wgt id='1429'> +2.7139269e+11 </wgt>
<wgt id='1430'> +2.7077500e+11 </wgt>
<wgt id='1431'> +2.7079989e+11 </wgt>
<wgt id='1432'> +2.7742234e+11 </wgt>
<wgt id='1433'> +2.7613762e+11 </wgt>
<wgt id='1434'> +2.8221103e+11 </wgt>
<wgt id='1435'> +2.7464028e+11 </wgt>
<wgt id='1436'> +2.7966335e+11 </wgt>
<wgt id='1437'> +2.7818649e+11 </wgt>
<wgt id='1438'> +2.7355647e+11 </wgt>
<wgt id='1439'> +2.7624559e+11 </wgt>
<wgt id='1440'> +2.8009475e+11 </wgt>
<wgt id='1441'> +2.7540110e+11 </wgt>
<wgt id='1442'> +2.8313856e+11 </wgt>
<wgt id='1443'> +2.7368050e+11 </wgt>
<wgt id='1444'> +2.7384778e+11 </wgt>
<wgt id='1445'> +2.7846432e+11 </wgt>
<wgt id='1446'> +2.7775924e+11 </wgt>
<wgt id='1447'> +2.7152004e+11 </wgt>
<wgt id='1448'> +2.7786783e+11 </wgt>
<wgt id='1449'> +2.7687032e+11 </wgt>
<wgt id='1450'> +2.7363866e+11 </wgt>
<wgt id='1451'> +2.7676158e+11 </wgt>
<wgt id='1452'> +2.7868629e+11 </wgt>
<wgt id='1453'> +2.8051975e+11 </wgt>
<wgt id='1454'> +2.6887512e+11 </wgt>
<wgt id='1455'> +2.7474706e+11 </wgt>
<wgt id='1456'> +2.7474486e+11 </wgt>
<wgt id='1457'> +2.7428700e+11 </wgt>
<wgt id='1458'> +2.7741345e+11 </wgt>
<wgt id='1459'> +3.0481794e+11 </wgt>
<wgt id='1460'> +3.0014405e+11 </wgt>
<wgt id='1461'> +3.4728238e+11 </wgt>
<wgt id='1462'> +2.9961947e+11 </wgt>
<wgt id='1463'> +2.9986939e+11 </wgt>
<wgt id='1464'> +2.9929896e+11 </wgt>
<wgt id='1465'> +2.9968089e+11 </wgt>
<wgt id='1466'> +2.9956336e+11 </wgt>
<wgt id='1467'> +2.9978253e+11 </wgt>
<wgt id='1468'> +2.9935195e+11 </wgt>
<wgt id='1469'> +2.9916894e+11 </wgt>
<wgt id='1470'> +2.9998540e+11 </wgt>
<wgt id='1471'> +3.0009803e+11 </wgt>
<wgt id='1472'> +2.9912657e+11 </wgt>
<wgt id='1473'> +3.0076999e+11 </wgt>
<wgt id='1474'> +2.9851441e+11 </wgt>
<wgt id='1475'> +3.0071758e+11 </wgt>
<wgt id='1476'> +2.9884092e+11 </wgt>
<wgt id='1477'> +2.9904595e+11 </wgt>
<wgt id='1478'> +3.0095917e+11 </wgt>
<wgt id='1479'> +2.9904359e+11 </wgt>
<wgt id='1480'> +3.0002147e+11 </wgt>
<wgt id='1481'> +2.9919881e+11 </wgt>
<wgt id='1482'> +3.0018672e+11 </wgt>
<wgt id='1483'> +2.9971761e+11 </wgt>
<wgt id='1484'> +2.9948008e+11 </wgt>
<wgt id='1485'> +2.9982063e+11 </wgt>
<wgt id='1486'> +2.9913505e+11 </wgt>
<wgt id='1487'> +2.9986829e+11 </wgt>
<wgt id='1488'> +2.9930650e+11 </wgt>
<wgt id='1489'> +2.9926820e+11 </wgt>
<wgt id='1490'> +3.0057172e+11 </wgt>
<wgt id='1491'> +3.0453929e+11 </wgt>
<wgt id='1492'> +2.9687342e+11 </wgt>
<wgt id='1493'> +2.9612240e+11 </wgt>
<wgt id='1494'> +3.1057921e+11 </wgt>
<wgt id='1495'> +2.9898638e+11 </wgt>
<wgt id='1496'> +3.0029850e+11 </wgt>
<wgt id='1497'> +2.9981834e+11 </wgt>
<wgt id='1498'> +2.9934767e+11 </wgt>
<wgt id='1499'> +3.0148598e+11 </wgt>
<wgt id='1500'> +2.9859833e+11 </wgt>
<wgt id='1501'> +3.0008520e+11 </wgt>
<wgt id='1502'> +2.9838506e+11 </wgt>
<wgt id='1503'> +2.9649332e+11 </wgt>
<wgt id='1504'> +3.0293424e+11 </wgt>
<wgt id='1505'> +3.0064951e+11 </wgt>
<wgt id='1506'> +2.9863041e+11 </wgt>
<wgt id='1507'> +3.0090637e+11 </wgt>
<wgt id='1508'> +2.9892410e+11 </wgt>
<wgt id='1509'> +3.0019129e+11 </wgt>
<wgt id='1510'> +2.9716554e+11 </wgt>
<wgt id='1511'> +3.0072617e+11 </wgt>
<wgt id='1512'> +2.9930765e+11 </wgt>
<wgt id='1513'> +2.9954084e+11 </wgt>
<wgt id='1514'> +2.9969059e+11 </wgt>
<wgt id='1515'> +3.0201550e+11 </wgt>
<wgt id='1516'> +3.0008729e+11 </wgt>
<wgt id='1517'> +2.9924851e+11 </wgt>
<wgt id='1518'> +2.9992184e+11 </wgt>
<wgt id='1519'> +2.9799703e+11 </wgt>
<wgt id='1520'> +3.0077430e+11 </wgt>
<wgt id='1521'> +2.9885846e+11 </wgt>
<wgt id='1522'> +3.0007682e+11 </wgt>
<wgt id='1523'> +3.0098757e+11 </wgt>
<wgt id='1524'> +3.0097057e+11 </wgt>
<wgt id='1525'> +3.0086382e+11 </wgt>
<wgt id='1526'> +3.0039071e+11 </wgt>
<wgt id='1527'> +2.9961947e+11 </wgt>
<wgt id='1528'> +2.9945047e+11 </wgt>
<wgt id='1529'> +2.9925878e+11 </wgt>
<wgt id='1530'> +2.9549857e+11 </wgt>
<wgt id='1531'> +2.9625430e+11 </wgt>
<wgt id='1532'> +2.9386587e+11 </wgt>
<wgt id='1533'> +2.9185097e+11 </wgt>
<wgt id='1534'> +2.9463960e+11 </wgt>
<wgt id='1535'> +2.9872665e+11 </wgt>
<wgt id='1536'> +2.9321476e+11 </wgt>
<wgt id='1537'> +2.9614684e+11 </wgt>
<wgt id='1538'> +2.9309082e+11 </wgt>
<wgt id='1539'> +3.0247256e+11 </wgt>
<wgt id='1540'> +2.9540112e+11 </wgt>
<wgt id='1541'> +2.9639502e+11 </wgt>
<wgt id='1542'> +2.9616233e+11 </wgt>
<wgt id='1543'> +2.9729530e+11 </wgt>
<wgt id='1544'> +2.9435194e+11 </wgt>
<wgt id='1545'> +2.9429598e+11 </wgt>
<wgt id='1546'> +2.9235440e+11 </wgt>
<wgt id='1547'> +2.9854882e+11 </wgt>
<wgt id='1548'> +2.9425055e+11 </wgt>
<wgt id='1549'> +2.9291082e+11 </wgt>
<wgt id='1550'> +2.9686794e+11 </wgt>
<wgt id='1551'> +2.9689628e+11 </wgt>
<wgt id='1552'> +2.9557912e+11 </wgt>
<wgt id='1553'> +2.9807041e+11 </wgt>
<wgt id='1554'> +2.9609626e+11 </wgt>
<wgt id='1555'> +2.9685616e+11 </wgt>
<wgt id='1556'> +2.9861623e+11 </wgt>
<wgt id='1557'> +2.9550513e+11 </wgt>
<wgt id='1558'> +2.9623554e+11 </wgt>
<wgt id='1559'> +2.9422819e+11 </wgt>
<wgt id='1560'> +2.9503652e+11 </wgt>
<wgt id='1561'> +2.9232627e+11 </wgt>
<wgt id='1562'> +2.9482026e+11 </wgt>
<wgt id='1563'> +2.9618220e+11 </wgt>
<wgt id='1564'> +2.9586753e+11 </wgt>
<wgt id='1565'> +2.9843994e+11 </wgt>
<wgt id='1566'> +2.9653893e+11 </wgt>
<wgt id='1567'> +2.9981404e+11 </wgt>
<wgt id='1568'> +2.9619770e+11 </wgt>
<wgt id='1569'> +2.9589242e+11 </wgt>
<wgt id='1570'> +2.9809283e+11 </wgt>
<wgt id='1571'> +2.9604146e+11 </wgt>
<wgt id='1572'> +2.9796943e+11 </wgt>
<wgt id='1573'> +2.9906336e+11 </wgt>
<wgt id='1574'> +2.6577006e+11 </wgt>
<wgt id='1575'> +2.6584252e+11 </wgt>
<wgt id='1576'> +2.6570229e+11 </wgt>
<wgt id='1577'> +2.6578838e+11 </wgt>
<wgt id='1578'> +2.6638147e+11 </wgt>
<wgt id='1579'> +2.6663712e+11 </wgt>
<wgt id='1580'> +2.6640962e+11 </wgt>
<wgt id='1581'> +2.6514035e+11 </wgt>
<wgt id='1582'> +2.6483210e+11 </wgt>
<wgt id='1583'> +2.6532784e+11 </wgt>
<wgt id='1584'> +2.6635021e+11 </wgt>
<wgt id='1585'> +2.6595847e+11 </wgt>
<wgt id='1586'> +2.6474254e+11 </wgt>
<wgt id='1587'> +2.6500057e+11 </wgt>
<wgt id='1588'> +2.6449570e+11 </wgt>
<wgt id='1589'> +2.6551934e+11 </wgt>
<wgt id='1590'> +2.6558178e+11 </wgt>
<wgt id='1591'> +2.6583786e+11 </wgt>
<wgt id='1592'> +2.6473579e+11 </wgt>
<wgt id='1593'> +2.6490521e+11 </wgt>
<wgt id='1594'> +2.6658173e+11 </wgt>
<wgt id='1595'> +2.6353857e+11 </wgt>
<wgt id='1596'> +2.6934651e+11 </wgt>
<wgt id='1597'> +2.6750410e+11 </wgt>
<wgt id='1598'> +2.6773105e+11 </wgt>
<wgt id='1599'> +2.6302868e+11 </wgt>
<wgt id='1600'> +2.7018978e+11 </wgt>
<wgt id='1601'> +2.6791313e+11 </wgt>
<wgt id='1602'> +2.6582769e+11 </wgt>
<wgt id='1603'> +2.7617748e+11 </wgt>
<wgt id='1604'> +2.6581191e+11 </wgt>
</rwgt>
</event>
<event>
 9      1 +2.8343000e+11 1.40000600e+03 7.81738600e-03 7.88880800e-02
       21 -1    0    0  504  503 +0.0000000000e+00 +0.0000000000e+00 +3.6515339376e+02 3.6515339376e+02 0.0000000000e+00 0.0000e+00 1.0000e+00
       21 -1    0    0  503  504 -0.0000000000e+00 -0.0000000000e+00 -1.3419124328e+03 1.3419124328e+03 0.0000000000e+00 0.0000e+00 1.0000e+00
       45  2    1    2    0    0 +0.0000000000e+00 +0.0000000000e+00 -9.7675903908e+02 1.7070658266e+03 1.4000055414e+03 0.0000e+00 0.0000e+00
       25  2    3    3    0    0 -4.7608693480e+02 +2.6464750337e+02 -1.0096535965e+03 1.1540024453e+03 1.2499675338e+02 0.0000e+00 0.0000e+00
       35  2    3    3    0    0 +4.7608693480e+02 -2.6464750337e+02 +3.2894557389e+01 5.5306338130e+02 8.9999896121e+01 0.0000e+00 0.0000e+00
        5  1    5    5  501    0 +4.3451783084e+02 -2.3618569005e+02 +5.5504544997e+01 4.9768256732e+02 4.2140000000e+00 0.0000e+00 -1.0000e+00
       -5  1    5    5    0  501 +4.1569103961e+01 -2.8461813327e+01 -2.2609987608e+01 5.5380813985e+01 4.2140000000e+00 0.0000e+00 -1.0000e+00
        5  1    4    4  502    0 -2.8401882271e+02 +1.2289647489e+02 -4.5651428771e+02 5.5153720443e+02 4.2140000000e+00 0.0000e+00 -1.0000e+00
       -5  1    4    4    0  502 -1.9206811210e+02 +1.4175102849e+02 -5.5313930876e+02 6.0246524087e+02 4.2140000000e+00 0.0000e+00 -1.0000e+00
<mgrwt>
<rscale>  0 0.14000055E+04</rscale>
<asrwt>0</asrwt>
<pdfrwt beam="1">  1       21 0.56177445E-01 0.14000055E+04</pdfrwt>
<pdfrwt beam="2">  1       21 0.20644807E+00 0.14000055E+04</pdfrwt>
<totfact> 0.24469207E+02</totfact>
</mgrwt>
<rwgt>
<wgt id='1001'> +2.8343000e+11 </wgt>
<wgt id='1002'> +2.9539428e+11 </wgt>
<wgt id='1003'> +2.9539058e+11 </wgt>
<wgt id='1004'> +3.3353893e+11 </wgt>
<wgt id='1005'> +2.8343000e+11 </wgt>
<wgt id='1006'> +2.8343000e+11 </wgt>
<wgt id='1007'> +2.9539428e+11 </wgt>
<wgt id='1008'> +2.9539058e+11 </wgt>
<wgt id='1009'> +3.3353893e+11 </wgt>
<wgt id='1010'> +2.8343000e+11 </wgt>
<wgt id='1011'> +2.8343000e+11 </wgt>
<wgt id='1012'> +2.9539428e+11 </wgt>
<wgt id='1013'> +2.9539058e+11 </wgt>
<wgt id='1014'> +3.3353893e+11 </wgt>
<wgt id='1015'> +2.8343000e+11 </wgt>
<wgt id='1016'> +2.5360708e+11 </wgt>
<wgt id='1017'> +2.6365704e+11 </wgt>
<wgt id='1018'> +2.6365394e+11 </wgt>
<wgt id='1019'> +2.9539058e+11 </wgt>
<wgt id='1020'> +2.5360708e+11 </wgt>
<wgt id='1021'> +2.5360708e+11 </wgt>
<wgt id='1022'> +2.6365704e+11 </wgt>
<wgt id='1023'> +2.6365394e+11 </wgt>
<wgt id='1024'> +2.9539058e+11 </wgt>
<wgt id='1025'> +2.5360708e+11 </wgt>
<wgt id='1026'> +2.5360708e+11 </wgt>
<wgt id='1027'> +2.6365704e+11 </wgt>
<wgt id='1028'> +2.6365394e+11 </wgt>
<wgt id='1029'> +2.9539058e+11 </wgt>
<wgt id='1030'> +2.5360708e+11 </wgt>
<wgt id='1031'> +3.1911742e+11 </wgt>
<wgt id='1032'> +3.3354338e+11 </wgt>
<wgt id='1033'> +3.3353893e+11 </wgt>
<wgt id='1034'> +3.7984835e+11 </wgt>
<wgt id='1035'> +3.1911742e+11 </wgt>
<wgt id='1036'> +3.1911742e+11 </wgt>
<wgt id='1037'> +3.3354338e+11 </wgt>
<wgt id='1038'> +3.3353893e+11 </wgt>
<wgt id='1039'> +3.7984835e+11 </wgt>
<wgt id='1040'> +3.1911742e+11 </wgt>
<wgt id='1041'> +3.1911742e+11 </wgt>
<wgt id='1042'> +3.3354338e+11 </wgt>
<wgt id='1043'> +3.3353893e+11 </wgt>
<wgt id='1044'> +3.7984835e+11 </wgt>
<wgt id='1045'> +3.1911742e+11 </wgt>
<wgt id='1046'> +2.8343000e+11 </wgt>
<wgt id='1047'> +2.8343000e+11 </wgt>
<wgt id='1048'> +2.8343000e+11 </wgt>
<wgt id='1049'> +2.8299091e+11 </wgt>
<wgt id='1050'> +2.8319248e+11 </wgt>
<wgt id='1051'> +2.8337106e+11 </wgt>
<wgt id='1052'> +2.8418325e+11 </wgt>
<wgt id='1053'> +2.8157914e+11 </wgt>
<wgt id='1054'> +2.8380263e+11 </wgt>
<wgt id='1055'> +2.8212150e+11 </wgt>
<wgt id='1056'> +2.8209274e+11 </wgt>
<wgt id='1057'> +2.8281468e+11 </wgt>
<wgt id='1058'> +2.8261311e+11 </wgt>
<wgt id='1059'> +2.8549748e+11 </wgt>
<wgt id='1060'> +2.8373844e+11 </wgt>
<wgt id='1061'> +2.8397727e+11 </wgt>
<wgt id='1062'> +2.8429042e+11 </wgt>
<wgt id='1063'> +2.8470360e+11 </wgt>
<wgt id='1064'> +2.8407524e+11 </wgt>
<wgt id='1065'> +2.8480354e+11 </wgt>
<wgt id='1066'> +2.8147663e+11 </wgt>
<wgt id='1067'> +2.8235657e+11 </wgt>
<wgt id='1068'> +2.8381970e+11 </wgt>
<wgt id='1069'> +2.8253784e+11 </wgt>
<wgt id='1070'> +2.8408888e+11 </wgt>
<wgt id='1071'> +2.8265459e+11 </wgt>
<wgt id='1072'> +2.8351938e+11 </wgt>
<wgt id='1073'> +2.8243299e+11 </wgt>
<wgt id='1074'> +2.8255677e+11 </wgt>
<wgt id='1075'> +2.8393896e+11 </wgt>
<wgt id='1076'> +2.8163655e+11 </wgt>
<wgt id='1077'> +2.8202391e+11 </wgt>
<wgt id='1078'> +2.8409106e+11 </wgt>
<wgt id='1079'> +2.8223479e+11 </wgt>
<wgt id='1080'> +2.8303984e+11 </wgt>
<wgt id='1081'> +2.8302026e+11 </wgt>
<wgt id='1082'> +2.8231597e+11 </wgt>
<wgt id='1083'> +2.8443581e+11 </wgt>
<wgt id='1084'> +2.8401785e+11 </wgt>
<wgt id='1085'> +2.8267610e+11 </wgt>
<wgt id='1086'> +2.8343299e+11 </wgt>
<wgt id='1087'> +2.8343730e+11 </wgt>
<wgt id='1088'> +2.8293690e+11 </wgt>
<wgt id='1089'> +2.8248659e+11 </wgt>
<wgt id='1090'> +2.8404597e+11 </wgt>
<wgt id='1091'> +2.8360847e+11 </wgt>
<wgt id='1092'> +2.8362356e+11 </wgt>
<wgt id='1093'> +2.8349521e+11 </wgt>
<wgt id='1094'> +2.8225607e+11 </wgt>
<wgt id='1095'> +2.8367005e+11 </wgt>
<wgt id='1096'> +2.8340937e+11 </wgt>
<wgt id='1097'> +2.8283569e+11 </wgt>
<wgt id='1098'> +2.8319430e+11 </wgt>
<wgt id='1099'> +2.8323316e+11 </wgt>
<wgt id='1100'> +2.8403115e+11 </wgt>
<wgt id='1101'> +2.8349226e+11 </wgt>
<wgt id='1102'> +2.8333703e+11 </wgt>
<wgt id='1103'> +2.8271253e+11 </wgt>
<wgt id='1104'> +2.8329689e+11 </wgt>
<wgt id='1105'> +2.8351066e+11 </wgt>
<wgt id='1106'> +2.8379087e+11 </wgt>
<wgt id='1107'> +2.8365936e+11 </wgt>
<wgt id='1108'> +2.8321567e+11 </wgt>
<wgt id='1109'> +2.8328418e+11 </wgt>
<wgt id='1110'> +2.8364352e+11 </wgt>
<wgt id='1111'> +2.8369952e+11 </wgt>
<wgt id='1112'> +2.8333703e+11 </wgt>
<wgt id='1113'> +2.8377750e+11 </wgt>
<wgt id='1114'> +2.8313992e+11 </wgt>
<wgt id='1115'> +2.8296964e+11 </wgt>
<wgt id='1116'> +2.8410632e+11 </wgt>
<wgt id='1117'> +2.8335663e+11 </wgt>
<wgt id='1118'> +2.8375736e+11 </wgt>
<wgt id='1119'> +2.8303103e+11 </wgt>
<wgt id='1120'> +2.8305762e+11 </wgt>
<wgt id='1121'> +2.8349959e+11 </wgt>
<wgt id='1122'> +2.8306554e+11 </wgt>
<wgt id='1123'> +2.8337421e+11 </wgt>
<wgt id='1124'> +2.8348152e+11 </wgt>
<wgt id='1125'> +2.8363209e+11 </wgt>
<wgt id='1126'> +2.8355803e+11 </wgt>
<wgt id='1127'> +2.8328611e+11 </wgt>
<wgt id='1128'> +2.8337056e+11 </wgt>
<wgt id='1129'> +2.8325812e+11 </wgt>
<wgt id='1130'> +2.8345865e+11 </wgt>
<wgt id='1131'> +2.8395998e+11 </wgt>
<wgt id='1132'> +2.8331820e+11 </wgt>
<wgt id='1133'> +2.8357392e+11 </wgt>
<wgt id='1134'> +2.8340447e+11 </wgt>
<wgt id='1135'> +2.8346475e+11 </wgt>
<wgt id='1136'> +2.8331164e+11 </wgt>
<wgt id='1137'> +2.8320522e+11 </wgt>
<wgt id='1138'> +2.8358053e+11 </wgt>
<wgt id='1139'> +2.8353699e+11 </wgt>
<wgt id='1140'> +2.8370698e+11 </wgt>
<wgt id='1141'> +2.8317230e+11 </wgt>
<wgt id='1142'> +2.8348531e+11 </wgt>
<wgt id='1143'> +2.8362850e+11 </wgt>
<wgt id='1144'> +2.8332749e+11 </wgt>
<wgt id='1145'> +2.8359341e+11 </wgt>
<wgt id='1146'> +2.8350227e+11 </wgt>
<wgt id='1147'> +2.8349174e+11 </wgt>
<wgt id='1148'> +2.8343000e+11 </wgt>
<wgt id='1149'> +2.8343000e+11 </wgt>
<wgt id='1150'> +2.9662022e+11 </wgt>
<wgt id='1151'> +2.7641734e+11 </wgt>
<wgt id='1152'> +2.7280546e+11 </wgt>
<wgt id='1153'> +2.8560256e+11 </wgt>
<wgt id='1154'> +2.7970289e+11 </wgt>
<wgt id='1155'> +2.9593006e+11 </wgt>
<wgt id='1156'> +2.7963925e+11 </wgt>
<wgt id='1157'> +2.7557896e+11 </wgt>
<wgt id='1158'> +2.7705198e+11 </wgt>
<wgt id='1159'> +2.9753461e+11 </wgt>
<wgt id='1160'> +2.8558193e+11 </wgt>
<wgt id='1161'> +2.9163026e+11 </wgt>
<wgt id='1162'> +2.8666168e+11 </wgt>
<wgt id='1163'> +2.8708805e+11 </wgt>
<wgt id='1164'> +2.7438381e+11 </wgt>
<wgt id='1165'> +2.7753786e+11 </wgt>
<wgt id='1166'> +2.8329412e+11 </wgt>
<wgt id='1167'> +2.7829603e+11 </wgt>
<wgt id='1168'> +2.7347051e+11 </wgt>
<wgt id='1169'> +2.7628914e+11 </wgt>
<wgt id='1170'> +2.8473930e+11 </wgt>
<wgt id='1171'> +2.7351471e+11 </wgt>
<wgt id='1172'> +2.7344656e+11 </wgt>
<wgt id='1173'> +2.8591982e+11 </wgt>
<wgt id='1174'> +2.7678854e+11 </wgt>
<wgt id='1175'> +2.7901810e+11 </wgt>
<wgt id='1176'> +2.8751635e+11 </wgt>
<wgt id='1177'> +2.7913992e+11 </wgt>
<wgt id='1178'> +2.8538384e+11 </wgt>
<wgt id='1179'> +2.8662905e+11 </wgt>
<wgt id='1180'> +2.7861852e+11 </wgt>
<wgt id='1181'> +2.9430161e+11 </wgt>
<wgt id='1182'> +2.8085123e+11 </wgt>
<wgt id='1183'> +2.8867414e+11 </wgt>
<wgt id='1184'> +2.7690247e+11 </wgt>
<wgt id='1185'> +2.8973505e+11 </wgt>
<wgt id='1186'> +2.7872628e+11 </wgt>
<wgt id='1187'> +2.8521857e+11 </wgt>
<wgt id='1188'> +2.9093161e+11 </wgt>
<wgt id='1189'> +2.8187012e+11 </wgt>
<wgt id='1190'> +2.8018803e+11 </wgt>
<wgt id='1191'> +2.9042214e+11 </wgt>
<wgt id='1192'> +2.8768523e+11 </wgt>
<wgt id='1193'> +2.8905451e+11 </wgt>
<wgt id='1194'> +2.7834684e+11 </wgt>
<wgt id='1195'> +2.8696737e+11 </wgt>
<wgt id='1196'> +2.9094872e+11 </wgt>
<wgt id='1197'> +2.9053362e+11 </wgt>
<wgt id='1198'> +2.8702783e+11 </wgt>
<wgt id='1199'> +2.8713393e+11 </wgt>
<wgt id='1200'> +2.9087528e+11 </wgt>
<wgt id='1201'> +2.8228664e+11 </wgt>
<wgt id='1202'> +2.8499573e+11 </wgt>
<wgt id='1203'> +2.8464174e+11 </wgt>
<wgt id='1204'> +2.8026357e+11 </wgt>
<wgt id='1205'> +2.8496697e+11 </wgt>
<wgt id='1206'> +2.8098211e+11 </wgt>
<wgt id='1207'> +2.9145513e+11 </wgt>
<wgt id='1208'> +2.7106809e+11 </wgt>
<wgt id='1209'> +2.8524615e+11 </wgt>
<wgt id='1210'> +2.8729584e+11 </wgt>
<wgt id='1211'> +2.8107907e+11 </wgt>
<wgt id='1212'> +2.8293838e+11 </wgt>
<wgt id='1213'> +2.8636686e+11 </wgt>
<wgt id='1214'> +2.7922922e+11 </wgt>
<wgt id='1215'> +2.7955884e+11 </wgt>
<wgt id='1216'> +2.7614848e+11 </wgt>
<wgt id='1217'> +2.8079138e+11 </wgt>
<wgt id='1218'> +2.8508001e+11 </wgt>
<wgt id='1219'> +2.9340587e+11 </wgt>
<wgt id='1220'> +2.8092082e+11 </wgt>
<wgt id='1221'> +2.7693559e+11 </wgt>
<wgt id='1222'> +2.7880488e+11 </wgt>
<wgt id='1223'> +2.7397341e+11 </wgt>
<wgt id='1224'> +2.8223338e+11 </wgt>
<wgt id='1225'> +2.8300235e+11 </wgt>
<wgt id='1226'> +2.8533741e+11 </wgt>
<wgt id='1227'> +2.8124956e+11 </wgt>
<wgt id='1228'> +2.8250029e+11 </wgt>
<wgt id='1229'> +2.9975608e+11 </wgt>
<wgt id='1230'> +2.8793930e+11 </wgt>
<wgt id='1231'> +2.7753786e+11 </wgt>
<wgt id='1232'> +2.8791597e+11 </wgt>
<wgt id='1233'> +2.7662137e+11 </wgt>
<wgt id='1234'> +2.7862370e+11 </wgt>
<wgt id='1235'> +3.0034622e+11 </wgt>
<wgt id='1236'> +2.7940209e+11 </wgt>
<wgt id='1237'> +2.9064653e+11 </wgt>
<wgt id='1238'> +2.7969450e+11 </wgt>
<wgt id='1239'> +2.8626458e+11 </wgt>
<wgt id='1240'> +2.7524080e+11 </wgt>
<wgt id='1241'> +2.8892151e+11 </wgt>
<wgt id='1242'> +2.8076212e+11 </wgt>
<wgt id='1243'> +2.8396409e+11 </wgt>
<wgt id='1244'> +2.9097378e+11 </wgt>
<wgt id='1245'> +2.7526507e+11 </wgt>
<wgt id='1246'> +3.0376410e+11 </wgt>
<wgt id='1247'> +2.8138305e+11 </wgt>
<wgt id='1248'> +2.7342216e+11 </wgt>
<wgt id='1249'> +2.7548561e+11 </wgt>
<wgt id='1250'> +2.9429023e+11 </wgt>
<wgt id='1251'> +3.0309845e+11 </wgt>
<wgt id='1252'> +2.8863613e+11 </wgt>
<wgt id='1253'> +2.9468380e+11 </wgt>
<wgt id='1254'> +2.9037435e+11 </wgt>
<wgt id='1255'> +3.0555231e+11 </wgt>
<wgt id='1256'> +3.0516028e+11 </wgt>
<wgt id='1257'> +3.0217966e+11 </wgt>
<wgt id='1258'> +2.9222964e+11 </wgt>
<wgt id='1259'> +3.0762964e+11 </wgt>
<wgt id='1260'> +3.3010152e+11 </wgt>
<wgt id='1261'> +3.1644075e+11 </wgt>
<wgt id='1262'> +2.9590979e+11 </wgt>
<wgt id='1263'> +3.0069048e+11 </wgt>
<wgt id='1264'> +3.0342623e+11 </wgt>
<wgt id='1265'> +2.9279988e+11 </wgt>
<wgt id='1266'> +3.0571600e+11 </wgt>
<wgt id='1267'> +3.5310029e+11 </wgt>
<wgt id='1268'> +2.8857133e+11 </wgt>
<wgt id='1269'> +2.8680379e+11 </wgt>
<wgt id='1270'> +3.0780126e+11 </wgt>
<wgt id='1271'> +2.6528848e+11 </wgt>
<wgt id='1272'> +2.9430071e+11 </wgt>
<wgt id='1273'> +2.9122555e+11 </wgt>
<wgt id='1274'> +2.8750830e+11 </wgt>
<wgt id='1275'> +2.9319542e+11 </wgt>
<wgt id='1276'> +3.0556787e+11 </wgt>
<wgt id='1277'> +3.0091116e+11 </wgt>
<wgt id='1278'> +3.0102408e+11 </wgt>
<wgt id='1279'> +2.7935073e+11 </wgt>
<wgt id='1280'> +2.8609839e+11 </wgt>
<wgt id='1281'> +2.8554080e+11 </wgt>
<wgt id='1282'> +2.9499306e+11 </wgt>
<wgt id='1283'> +3.1399416e+11 </wgt>
<wgt id='1284'> +3.0725267e+11 </wgt>
<wgt id='1285'> +3.0823845e+11 </wgt>
<wgt id='1286'> +3.3241216e+11 </wgt>
<wgt id='1287'> +3.1418618e+11 </wgt>
<wgt id='1288'> +3.3975914e+11 </wgt>
<wgt id='1289'> +3.1683608e+11 </wgt>
<wgt id='1290'> +3.1362195e+11 </wgt>
<wgt id='1291'> +2.7925264e+11 </wgt>
<wgt id='1292'> +3.0494520e+11 </wgt>
<wgt id='1293'> +3.0416080e+11 </wgt>
<wgt id='1294'> +3.2788668e+11 </wgt>
<wgt id='1295'> +3.1185953e+11 </wgt>
<wgt id='1296'> +3.3412165e+11 </wgt>
<wgt id='1297'> +2.8959077e+11 </wgt>
<wgt id='1298'> +2.9009776e+11 </wgt>
<wgt id='1299'> +3.0569002e+11 </wgt>
<wgt id='1300'> +2.8028870e+11 </wgt>
<wgt id='1301'> +2.8010473e+11 </wgt>
<wgt id='1302'> +2.8214919e+11 </wgt>
<wgt id='1303'> +3.0557563e+11 </wgt>
<wgt id='1304'> +3.3101506e+11 </wgt>
<wgt id='1305'> +2.9846142e+11 </wgt>
<wgt id='1306'> +3.0668865e+11 </wgt>
<wgt id='1307'> +2.8526107e+11 </wgt>
<wgt id='1308'> +3.3286680e+11 </wgt>
<wgt id='1309'> +3.0272121e+11 </wgt>
<wgt id='1310'> +3.0453891e+11 </wgt>
<wgt id='1311'> +2.9687735e+11 </wgt>
<wgt id='1312'> +3.1895086e+11 </wgt>
<wgt id='1313'> +3.0631148e+11 </wgt>
<wgt id='1314'> +2.9200662e+11 </wgt>
<wgt id='1315'> +2.8837484e+11 </wgt>
<wgt id='1316'> +3.0033020e+11 </wgt>
<wgt id='1317'> +3.1626459e+11 </wgt>
<wgt id='1318'> +2.9207097e+11 </wgt>
<wgt id='1319'> +2.9728533e+11 </wgt>
<wgt id='1320'> +3.1966338e+11 </wgt>
<wgt id='1321'> +3.0502973e+11 </wgt>
<wgt id='1322'> +3.1563135e+11 </wgt>
<wgt id='1323'> +2.8694886e+11 </wgt>
<wgt id='1324'> +3.1118347e+11 </wgt>
<wgt id='1325'> +3.1398174e+11 </wgt>
<wgt id='1326'> +3.1085697e+11 </wgt>
<wgt id='1327'> +3.1685640e+11 </wgt>
<wgt id='1328'> +2.9925438e+11 </wgt>
<wgt id='1329'> +2.9800336e+11 </wgt>
<wgt id='1330'> +2.8415040e+11 </wgt>
<wgt id='1331'> +3.2470384e+11 </wgt>
<wgt id='1332'> +3.0077568e+11 </wgt>
<wgt id='1333'> +3.0275467e+11 </wgt>
<wgt id='1334'> +3.2054132e+11 </wgt>
<wgt id='1335'> +2.9185383e+11 </wgt>
<wgt id='1336'> +3.2025139e+11 </wgt>
<wgt id='1337'> +3.1008002e+11 </wgt>
<wgt id='1338'> +2.8682762e+11 </wgt>
<wgt id='1339'> +3.1338164e+11 </wgt>
<wgt id='1340'> +3.1301835e+11 </wgt>
<wgt id='1341'> +3.3016757e+11 </wgt>
<wgt id='1342'> +3.0035117e+11 </wgt>
<wgt id='1343'> +3.0939573e+11 </wgt>
<wgt id='1344'> +3.2005346e+11 </wgt>
<wgt id='1345'> +2.5977053e+11 </wgt>
<wgt id='1346'> +3.0580904e+11 </wgt>
<wgt id='1347'> +2.9512632e+11 </wgt>
<wgt id='1348'> +2.9151610e+11 </wgt>
<wgt id='1349'> +2.8877978e+11 </wgt>
<wgt id='1350'> +3.1319961e+11 </wgt>
<wgt id='1351'> +2.9058912e+11 </wgt>
<wgt id='1352'> +3.0528490e+11 </wgt>
<wgt id='1353'> +3.0268146e+11 </wgt>
<wgt id='1354'> +3.1163877e+11 </wgt>
<wgt id='1355'> +2.7980732e+11 </wgt>
<wgt id='1356'> +2.8235475e+11 </wgt>
<wgt id='1357'> +2.8046793e+11 </wgt>
<wgt id='1358'> +2.7838949e+11 </wgt>
<wgt id='1359'> +2.7861994e+11 </wgt>
<wgt id='1360'> +2.7519902e+11 </wgt>
<wgt id='1361'> +2.7831920e+11 </wgt>
<wgt id='1362'> +2.8801141e+11 </wgt>
<wgt id='1363'> +2.7862376e+11 </wgt>
<wgt id='1364'> +2.8552331e+11 </wgt>
<wgt id='1365'> +2.7772623e+11 </wgt>
<wgt id='1366'> +2.7591622e+11 </wgt>
<wgt id='1367'> +2.7891478e+11 </wgt>
<wgt id='1368'> +2.8065400e+11 </wgt>
<wgt id='1369'> +2.8317474e+11 </wgt>
<wgt id='1370'> +2.7585884e+11 </wgt>
<wgt id='1371'> +2.7998866e+11 </wgt>
<wgt id='1372'> +2.8009686e+11 </wgt>
<wgt id='1373'> +2.8326840e+11 </wgt>
<wgt id='1374'> +2.7353509e+11 </wgt>
<wgt id='1375'> +2.8138127e+11 </wgt>
<wgt id='1376'> +2.7882091e+11 </wgt>
<wgt id='1377'> +2.8014247e+11 </wgt>
<wgt id='1378'> +2.8080306e+11 </wgt>
<wgt id='1379'> +2.7816893e+11 </wgt>
<wgt id='1380'> +2.7723132e+11 </wgt>
<wgt id='1381'> +2.8402361e+11 </wgt>
<wgt id='1382'> +2.7825873e+11 </wgt>
<wgt id='1383'> +2.7684438e+11 </wgt>
<wgt id='1384'> +2.7500380e+11 </wgt>
<wgt id='1385'> +2.7456772e+11 </wgt>
<wgt id='1386'> +2.7726131e+11 </wgt>
<wgt id='1387'> +2.7795766e+11 </wgt>
<wgt id='1388'> +2.7520855e+11 </wgt>
<wgt id='1389'> +2.7826343e+11 </wgt>
<wgt id='1390'> +2.8258840e+11 </wgt>
<wgt id='1391'> +2.7920540e+11 </wgt>
<wgt id='1392'> +2.7552589e+11 </wgt>
<wgt id='1393'> +2.8138422e+11 </wgt>
<wgt id='1394'> +2.7919355e+11 </wgt>
<wgt id='1395'> +2.7457089e+11 </wgt>
<wgt id='1396'> +2.8011409e+11 </wgt>
<wgt id='1397'> +2.8030637e+11 </wgt>
<wgt id='1398'> +2.8390229e+11 </wgt>
<wgt id='1399'> +2.7795940e+11 </wgt>
<wgt id='1400'> +2.7440037e+11 </wgt>
<wgt id='1401'> +2.8070888e+11 </wgt>
<wgt id='1402'> +2.8216053e+11 </wgt>
<wgt id='1403'> +2.8895856e+11 </wgt>
<wgt id='1404'> +2.8348105e+11 </wgt>
<wgt id='1405'> +2.8726857e+11 </wgt>
<wgt id='1406'> +2.8331360e+11 </wgt>
<wgt id='1407'> +2.8071238e+11 </wgt>
<wgt id='1408'> +2.8725194e+11 </wgt>
<wgt id='1409'> +2.7464960e+11 </wgt>
<wgt id='1410'> +2.7198123e+11 </wgt>
<wgt id='1411'> +2.7953220e+11 </wgt>
<wgt id='1412'> +2.7901273e+11 </wgt>
<wgt id='1413'> +2.8242032e+11 </wgt>
<wgt id='1414'> +2.8235348e+11 </wgt>
<wgt id='1415'> +2.7935365e+11 </wgt>
<wgt id='1416'> +2.8093545e+11 </wgt>
<wgt id='1417'> +2.7754978e+11 </wgt>
<wgt id='1418'> +2.7873345e+11 </wgt>
<wgt id='1419'> +2.8316954e+11 </wgt>
<wgt id='1420'> +2.7481791e+11 </wgt>
<wgt id='1421'> +2.8655965e+11 </wgt>
<wgt id='1422'> +2.7268291e+11 </wgt>
<wgt id='1423'> +2.8369902e+11 </wgt>
<wgt id='1424'> +2.8019472e+11 </wgt>
<wgt id='1425'> +2.8018656e+11 </wgt>
<wgt id='1426'> +2.8205417e+11 </wgt>
<wgt id='1427'> +2.7828798e+11 </wgt>
<wgt id='1428'> +2.7806884e+11 </wgt>
<wgt id='1429'> +2.8070130e+11 </wgt>
<wgt id='1430'> +2.7642832e+11 </wgt>
<wgt id='1431'> +2.7615213e+11 </wgt>
<wgt id='1432'> +2.7636261e+11 </wgt>
<wgt id='1433'> +2.7520500e+11 </wgt>
<wgt id='1434'> +2.8682140e+11 </wgt>
<wgt id='1435'> +2.7909671e+11 </wgt>
<wgt id='1436'> +2.8374920e+11 </wgt>
<wgt id='1437'> +2.7840479e+11 </wgt>
<wgt id='1438'> +2.7955813e+11 </wgt>
<wgt id='1439'> +2.8629039e+11 </wgt>
<wgt id='1440'> +2.8070067e+11 </wgt>
<wgt id='1441'> +2.7587914e+11 </wgt>
<wgt id='1442'> +2.8263089e+11 </wgt>
<wgt id='1443'> +2.7623928e+11 </wgt>
<wgt id='1444'> +2.8546049e+11 </wgt>
<wgt id='1445'> +2.7907988e+11 </wgt>
<wgt id='1446'> +2.8796402e+11 </wgt>
<wgt id='1447'> +2.7928661e+11 </wgt>
<wgt id='1448'> +2.8243131e+11 </wgt>
<wgt id='1449'> +2.8291840e+11 </wgt>
<wgt id='1450'> +2.7916076e+11 </wgt>
<wgt id='1451'> +2.8013472e+11 </wgt>
<wgt id='1452'> +2.8191999e+11 </wgt>
<wgt id='1453'> +2.8109737e+11 </wgt>
<wgt id='1454'> +2.7105555e+11 </wgt>
<wgt id='1455'> +2.7825089e+11 </wgt>
<wgt id='1456'> +2.7829003e+11 </wgt>
<wgt id='1457'> +2.7940470e+11 </wgt>
<wgt id='1458'> +2.8615939e+11 </wgt>
<wgt id='1459'> +3.1221517e+11 </wgt>
<wgt id='1460'> +3.0701138e+11 </wgt>
<wgt id='1461'> +3.6638518e+11 </wgt>
<wgt id='1462'> +3.0109257e+11 </wgt>
<wgt id='1463'> +3.0131397e+11 </wgt>
<wgt id='1464'> +3.0080862e+11 </wgt>
<wgt id='1465'> +3.0115997e+11 </wgt>
<wgt id='1466'> +3.0103102e+11 </wgt>
<wgt id='1467'> +3.0120780e+11 </wgt>
<wgt id='1468'> +3.0090349e+11 </wgt>
<wgt id='1469'> +3.0066061e+11 </wgt>
<wgt id='1470'> +3.0144338e+11 </wgt>
<wgt id='1471'> +3.0154172e+11 </wgt>
<wgt id='1472'> +3.0062994e+11 </wgt>
<wgt id='1473'> +3.0228985e+11 </wgt>
<wgt id='1474'> +2.9994257e+11 </wgt>
<wgt id='1475'> +3.0222663e+11 </wgt>
<wgt id='1476'> +3.0028869e+11 </wgt>
<wgt id='1477'> +3.0054544e+11 </wgt>
<wgt id='1478'> +3.0237090e+11 </wgt>
<wgt id='1479'> +3.0075653e+11 </wgt>
<wgt id='1480'> +3.0133184e+11 </wgt>
<wgt id='1481'> +3.0054193e+11 </wgt>
<wgt id='1482'> +3.0183743e+11 </wgt>
<wgt id='1483'> +3.0115349e+11 </wgt>
<wgt id='1484'> +3.0100959e+11 </wgt>
<wgt id='1485'> +3.0130292e+11 </wgt>
<wgt id='1486'> +3.0058595e+11 </wgt>
<wgt id='1487'> +3.0137701e+11 </wgt>
<wgt id='1488'> +3.0073752e+11 </wgt>
<wgt id='1489'> +3.0071771e+11 </wgt>
<wgt id='1490'> +3.0210923e+11 </wgt>
<wgt id='1491'> +3.0612472e+11 </wgt>
<wgt id='1492'> +2.9828888e+11 </wgt>
<wgt id='1493'> +2.9742718e+11 </wgt>
<wgt id='1494'> +3.1258937e+11 </wgt>
<wgt id='1495'> +3.0027232e+11 </wgt>
<wgt id='1496'> +3.0197346e+11 </wgt>
<wgt id='1497'> +3.0130152e+11 </wgt>
<wgt id='1498'> +3.0080724e+11 </wgt>
<wgt id='1499'> +3.0317351e+11 </wgt>
<wgt id='1500'> +2.9995633e+11 </wgt>
<wgt id='1501'> +3.0144915e+11 </wgt>
<wgt id='1502'> +3.0015382e+11 </wgt>
<wgt id='1503'> +2.9693195e+11 </wgt>
<wgt id='1504'> +3.0572502e+11 </wgt>
<wgt id='1505'> +3.0180405e+11 </wgt>
<wgt id='1506'> +3.0039131e+11 </wgt>
<wgt id='1507'> +3.0422790e+11 </wgt>
<wgt id='1508'> +2.9626278e+11 </wgt>
<wgt id='1509'> +3.0185987e+11 </wgt>
<wgt id='1510'> +2.9778525e+11 </wgt>
<wgt id='1511'> +3.0231844e+11 </wgt>
<wgt id='1512'> +3.0072426e+11 </wgt>
<wgt id='1513'> +3.0093017e+11 </wgt>
<wgt id='1514'> +3.0128560e+11 </wgt>
<wgt id='1515'> +3.0472034e+11 </wgt>
<wgt id='1516'> +3.0075382e+11 </wgt>
<wgt id='1517'> +3.0057987e+11 </wgt>
<wgt id='1518'> +3.0177251e+11 </wgt>
<wgt id='1519'> +2.9913119e+11 </wgt>
<wgt id='1520'> +3.0248236e+11 </wgt>
<wgt id='1521'> +2.9990266e+11 </wgt>
<wgt id='1522'> +3.0176618e+11 </wgt>
<wgt id='1523'> +3.0228697e+11 </wgt>
<wgt id='1524'> +3.0273514e+11 </wgt>
<wgt id='1525'> +3.0186153e+11 </wgt>
<wgt id='1526'> +3.0251184e+11 </wgt>
<wgt id='1527'> +3.0109257e+11 </wgt>
<wgt id='1528'> +3.0006382e+11 </wgt>
<wgt id='1529'> +3.0181245e+11 </wgt>
<wgt id='1530'> +2.9701399e+11 </wgt>
<wgt id='1531'> +3.0364225e+11 </wgt>
<wgt id='1532'> +3.0287733e+11 </wgt>
<wgt id='1533'> +2.9819499e+11 </wgt>
<wgt id='1534'> +3.0201938e+11 </wgt>
<wgt id='1535'> +3.0682296e+11 </wgt>
<wgt id='1536'> +3.0044044e+11 </wgt>
<wgt id='1537'> +3.0510745e+11 </wgt>
<wgt id='1538'> +2.9973662e+11 </wgt>
<wgt id='1539'> +3.0883171e+11 </wgt>
<wgt id='1540'> +3.0461652e+11 </wgt>
<wgt id='1541'> +3.0519271e+11 </wgt>
<wgt id='1542'> +3.0376459e+11 </wgt>
<wgt id='1543'> +3.0539177e+11 </wgt>
<wgt id='1544'> +3.0196367e+11 </wgt>
<wgt id='1545'> +3.0161459e+11 </wgt>
<wgt id='1546'> +2.9983542e+11 </wgt>
<wgt id='1547'> +3.0593958e+11 </wgt>
<wgt id='1548'> +3.0235823e+11 </wgt>
<wgt id='1549'> +3.0011428e+11 </wgt>
<wgt id='1550'> +3.0564843e+11 </wgt>
<wgt id='1551'> +3.0425588e+11 </wgt>
<wgt id='1552'> +3.0368721e+11 </wgt>
<wgt id='1553'> +3.0811365e+11 </wgt>
<wgt id='1554'> +3.0382934e+11 </wgt>
<wgt id='1555'> +3.0460631e+11 </wgt>
<wgt id='1556'> +3.0571614e+11 </wgt>
<wgt id='1557'> +3.0323842e+11 </wgt>
<wgt id='1558'> +3.0399040e+11 </wgt>
<wgt id='1559'> +3.0102745e+11 </wgt>
<wgt id='1560'> +3.0250624e+11 </wgt>
<wgt id='1561'> +3.0147162e+11 </wgt>
<wgt id='1562'> +3.0192270e+11 </wgt>
<wgt id='1563'> +3.0389629e+11 </wgt>
<wgt id='1564'> +3.0334459e+11 </wgt>
<wgt id='1565'> +3.0646832e+11 </wgt>
<wgt id='1566'> +3.0365235e+11 </wgt>
<wgt id='1567'> +3.0521291e+11 </wgt>
<wgt id='1568'> +3.0349906e+11 </wgt>
<wgt id='1569'> +3.0304090e+11 </wgt>
<wgt id='1570'> +3.1011679e+11 </wgt>
<wgt id='1571'> +3.0370811e+11 </wgt>
<wgt id='1572'> +3.0544254e+11 </wgt>
<wgt id='1573'> +3.0779829e+11 </wgt>
<wgt id='1574'> +2.5532361e+11 </wgt>
<wgt id='1575'> +2.5539072e+11 </wgt>
<wgt id='1576'> +2.5525512e+11 </wgt>
<wgt id='1577'> +2.5534159e+11 </wgt>
<wgt id='1578'> +2.5591220e+11 </wgt>
<wgt id='1579'> +2.5612231e+11 </wgt>
<wgt id='1580'> +2.5588860e+11 </wgt>
<wgt id='1581'> +2.5484021e+11 </wgt>
<wgt id='1582'> +2.5457031e+11 </wgt>
<wgt id='1583'> +2.5486212e+11 </wgt>
<wgt id='1584'> +2.5588895e+11 </wgt>
<wgt id='1585'> +2.5557001e+11 </wgt>
<wgt id='1586'> +2.5451078e+11 </wgt>
<wgt id='1587'> +2.5466565e+11 </wgt>
<wgt id='1588'> +2.5422073e+11 </wgt>
<wgt id='1589'> +2.5500547e+11 </wgt>
<wgt id='1590'> +2.5517127e+11 </wgt>
<wgt id='1591'> +2.5540380e+11 </wgt>
<wgt id='1592'> +2.5434325e+11 </wgt>
<wgt id='1593'> +2.5424210e+11 </wgt>
<wgt id='1594'> +2.5637264e+11 </wgt>
<wgt id='1595'> +2.5280122e+11 </wgt>
<wgt id='1596'> +2.5954764e+11 </wgt>
<wgt id='1597'> +2.5713974e+11 </wgt>
<wgt id='1598'> +2.5726751e+11 </wgt>
<wgt id='1599'> +2.5231614e+11 </wgt>
<wgt id='1600'> +2.6021984e+11 </wgt>
<wgt id='1601'> +2.5748280e+11 </wgt>
<wgt id='1602'> +2.5537757e+11 </wgt>
<wgt id='1603'> +2.6915055e+11 </wgt>
<wgt id='1604'> +2.5548998e+11 </wgt>
</rwgt>
</event>
<event>
 9      1 +2.8343000e+11 1.40000200e+03 7.81738600e-03 7.88881100e-02
       21 -1    0    0  504  503 +0.0000000000e+00 +0.0000000000e+00 +4.8121653008e+02 4.8121653008e+02 0.0000000000e+00 0.0000e+00 1.0000e+00
       21 -1    0    0  503  504 -0.0000000000e+00 -0.0000000000e+00 -1.0182549746e+03 1.0182549746e+03 0.0000000000e+00 0.0000e+00 1.0000e+00
       45  2    1    2    0    0 +0.0000000000e+00 +2.8421709430e-14 -5.3703844451e+02 1.4994715047e+03 1.4000016080e+03 0.0000e+00 0.0000e+00
       25  2    3    3    0    0 -6.5419009166e+02 +2.2401142579e+02 -2.7012292443e+02 7.5281915269e+02 1.2499794975e+02 0.0000e+00 0.0000e+00
       35  2    3    3    0    0 +6.5419009166e+02 -2.2401142579e+02 -2.6691552008e+02 7.4665235198e+02 9.0000249694e+01 0.0000e+00 0.0000e+00
        5  1    5    5  501    0 +1.0014112851e+02 -3.3135944777e+01 -7.6549062031e+00 1.0584229703e+02 4.2140000000e+00 0.0000e+00 1.0000e+00
       -5  1    5    5    0  501 +5.5404896315e+02 -1.9087548101e+02 -2.5926061388e+02 6.4081005495e+02 4.2140000000e+00 0.0000e+00 1.0000e+00
        5  1    4    4  502    0 -3.9971783434e+02 +1.5857165240e+02 -1.0573142963e+02 4.4285009771e+02 4.2140000000e+00 0.0000e+00 1.0000e+00
       -5  1    4    4    0  502 -2.5447225732e+02 +6.5439773381e+01 -1.6439149479e+02 3.0996905498e+02 4.2140000000e+00 0.0000e+00 1.0000e+00
<mgrwt>
<rscale>  0 0.14000016E+04</rscale>
<asrwt>0</asrwt>
<pdfrwt beam="1">  1       21 0.74033313E-01 0.14000016E+04</pdfrwt>
<pdfrwt beam="2">  1       21 0.15665461E+00 0.14000016E+04</pdfrwt>
<totfact> 0.31828143E+02</totfact>
</mgrwt>
<rwgt>
<wgt id='1001'> +2.8343000e+11 </wgt>
<wgt id='1002'> +2.8394161e+11 </wgt>
<wgt id='1003'> +2.8394117e+11 </wgt>
<wgt id='1004'> +3.1880933e+11 </wgt>
<wgt id='1005'> +2.8343000e+11 </wgt>
<wgt id='1006'> +2.8343000e+11 </wgt>
<wgt id='1007'> +2.8394161e+11 </wgt>
<wgt id='1008'> +2.8394117e+11 </wgt>
<wgt id='1009'> +3.1880933e+11 </wgt>
<wgt id='1010'> +2.8343000e+11 </wgt>
<wgt id='1011'> +2.8343000e+11 </wgt>
<wgt id='1012'> +2.8394161e+11 </wgt>
<wgt id='1013'> +2.8394117e+11 </wgt>
<wgt id='1014'> +3.1880933e+11 </wgt>
<wgt id='1015'> +2.8343000e+11 </wgt>
<wgt id='1016'> +2.5430237e+11 </wgt>
<wgt id='1017'> +2.5473519e+11 </wgt>
<wgt id='1018'> +2.5473481e+11 </wgt>
<wgt id='1019'> +2.8394117e+11 </wgt>
<wgt id='1020'> +2.5430237e+11 </wgt>
<wgt id='1021'> +2.5430237e+11 </wgt>
<wgt id='1022'> +2.5473519e+11 </wgt>
<wgt id='1023'> +2.5473481e+11 </wgt>
<wgt id='1024'> +2.8394117e+11 </wgt>
<wgt id='1025'> +2.5430237e+11 </wgt>
<wgt id='1026'> +2.5430237e+11 </wgt>
<wgt id='1027'> +2.5473519e+11 </wgt>
<wgt id='1028'> +2.5473481e+11 </wgt>
<wgt id='1029'> +2.8394117e+11 </wgt>
<wgt id='1030'> +2.5430237e+11 </wgt>
<wgt id='1031'> +3.1819525e+11 </wgt>
<wgt id='1032'> +3.1880987e+11 </wgt>
<wgt id='1033'> +3.1880933e+11 </wgt>
<wgt id='1034'> +3.6078898e+11 </wgt>
<wgt id='1035'> +3.1819525e+11 </wgt>
<wgt id='1036'> +3.1819525e+11 </wgt>
<wgt id='1037'> +3.1880987e+11 </wgt>
<wgt id='1038'> +3.1880933e+11 </wgt>
<wgt id='1039'> +3.6078898e+11 </wgt>
<wgt id='1040'> +3.1819525e+11 </wgt>
<wgt id='1041'> +3.1819525e+11 </wgt>
<wgt id='1042'> +3.1880987e+11 </wgt>
<wgt id='1043'> +3.1880933e+11 </wgt>
<wgt id='1044'> +3.6078898e+11 </wgt>
<wgt id='1045'> +3.1819525e+11 </wgt>
<wgt id='1046'> +2.8343000e+11 </wgt>
<wgt id='1047'> +2.8343000e+11 </wgt>
<wgt id='1048'> +2.8343000e+11 </wgt>
<wgt id='1049'> +2.8265068e+11 </wgt>
<wgt id='1050'> +2.8322389e+11 </wgt>
<wgt id='1051'> +2.8334907e+11 </wgt>
<wgt id='1052'> +2.8434534e+11 </wgt>
<wgt id='1053'> +2.8175232e+11 </wgt>
<wgt id='1054'> +2.8374591e+11 </wgt>
<wgt id='1055'> +2.8224635e+11 </wgt>
<wgt id='1056'> +2.8204998e+11 </wgt>
<wgt id='1057'> +2.8379662e+11 </wgt>
<wgt id='1058'> +2.8290806e+11 </wgt>
<wgt id='1059'> +2.8522742e+11 </wgt>
<wgt id='1060'> +2.8375912e+11 </wgt>
<wgt id='1061'> +2.8400689e+11 </wgt>
<wgt id='1062'> +2.8419742e+11 </wgt>
<wgt id='1063'> +2.8423636e+11 </wgt>
<wgt id='1064'> +2.8420860e+11 </wgt>
<wgt id='1065'> +2.8469568e+11 </wgt>
<wgt id='1066'> +2.8140143e+11 </wgt>
<wgt id='1067'> +2.8101968e+11 </wgt>
<wgt id='1068'> +2.8334946e+11 </wgt>
<wgt id='1069'> +2.8258651e+11 </wgt>
<wgt id='1070'> +2.8380058e+11 </wgt>
<wgt id='1071'> +2.8369517e+11 </wgt>
<wgt id='1072'> +2.8176176e+11 </wgt>
<wgt id='1073'> +2.8367774e+11 </wgt>
<wgt id='1074'> +2.8333580e+11 </wgt>
<wgt id='1075'> +2.8449619e+11 </wgt>
<wgt id='1076'> +2.8190262e+11 </wgt>
<wgt id='1077'> +2.8225119e+11 </wgt>
<wgt id='1078'> +2.8408992e+11 </wgt>
<wgt id='1079'> +2.8211790e+11 </wgt>
<wgt id='1080'> +2.8311633e+11 </wgt>
<wgt id='1081'> +2.8294381e+11 </wgt>
<wgt id='1082'> +2.8217397e+11 </wgt>
<wgt id='1083'> +2.8383378e+11 </wgt>
<wgt id='1084'> +2.8394311e+11 </wgt>
<wgt id='1085'> +2.8276171e+11 </wgt>
<wgt id='1086'> +2.8306856e+11 </wgt>
<wgt id='1087'> +2.8311867e+11 </wgt>
<wgt id='1088'> +2.8293085e+11 </wgt>
<wgt id='1089'> +2.8268739e+11 </wgt>
<wgt id='1090'> +2.8413254e+11 </wgt>
<wgt id='1091'> +2.8352006e+11 </wgt>
<wgt id='1092'> +2.8374464e+11 </wgt>
<wgt id='1093'> +2.8333460e+11 </wgt>
<wgt id='1094'> +2.8276819e+11 </wgt>
<wgt id='1095'> +2.8361241e+11 </wgt>
<wgt id='1096'> +2.8338904e+11 </wgt>
<wgt id='1097'> +2.8301084e+11 </wgt>
<wgt id='1098'> +2.8309705e+11 </wgt>
<wgt id='1099'> +2.8315916e+11 </wgt>
<wgt id='1100'> +2.8403213e+11 </wgt>
<wgt id='1101'> +2.8344292e+11 </wgt>
<wgt id='1102'> +2.8330363e+11 </wgt>
<wgt id='1103'> +2.8300334e+11 </wgt>
<wgt id='1104'> +2.8316395e+11 </wgt>
<wgt id='1105'> +2.8353873e+11 </wgt>
<wgt id='1106'> +2.8375790e+11 </wgt>
<wgt id='1107'> +2.8341607e+11 </wgt>
<wgt id='1108'> +2.8329553e+11 </wgt>
<wgt id='1109'> +2.8321863e+11 </wgt>
<wgt id='1110'> +2.8373441e+11 </wgt>
<wgt id='1111'> +2.8356825e+11 </wgt>
<wgt id='1112'> +2.8338473e+11 </wgt>
<wgt id='1113'> +2.8375046e+11 </wgt>
<wgt id='1114'> +2.8311630e+11 </wgt>
<wgt id='1115'> +2.8316199e+11 </wgt>
<wgt id='1116'> +2.8385099e+11 </wgt>
<wgt id='1117'> +2.8336378e+11 </wgt>
<wgt id='1118'> +2.8357554e+11 </wgt>
<wgt id='1119'> +2.8318358e+11 </wgt>
<wgt id='1120'> +2.8323443e+11 </wgt>
<wgt id='1121'> +2.8350357e+11 </wgt>
<wgt id='1122'> +2.8319017e+11 </wgt>
<wgt id='1123'> +2.8337281e+11 </wgt>
<wgt id='1124'> +2.8339115e+11 </wgt>
<wgt id='1125'> +2.8360009e+11 </wgt>
<wgt id='1126'> +2.8354086e+11 </wgt>
<wgt id='1127'> +2.8331334e+11 </wgt>
<wgt id='1128'> +2.8344012e+11 </wgt>
<wgt id='1129'> +2.8335175e+11 </wgt>
<wgt id='1130'> +2.8346797e+11 </wgt>
<wgt id='1131'> +2.8377580e+11 </wgt>
<wgt id='1132'> +2.8334944e+11 </wgt>
<wgt id='1133'> +2.8352513e+11 </wgt>
<wgt id='1134'> +2.8341896e+11 </wgt>
<wgt id='1135'> +2.8346791e+11 </wgt>
<wgt id='1136'> +2.8337110e+11 </wgt>
<wgt id='1137'> +2.8326269e+11 </wgt>
<wgt id='1138'> +2.8355669e+11 </wgt>
<wgt id='1139'> +2.8348656e+11 </wgt>
<wgt id='1140'> +2.8365088e+11 </wgt>
<wgt id='1141'> +2.8326305e+11 </wgt>
<wgt id='1142'> +2.8349935e+11 </wgt>
<wgt id='1143'> +2.8359876e+11 </wgt>
<wgt id='1144'> +2.8333492e+11 </wgt>
<wgt id='1145'> +2.8356591e+11 </wgt>
<wgt id='1146'> +2.8344188e+11 </wgt>
<wgt id='1147'> +2.8348116e+11 </wgt>
<wgt id='1148'> +2.8343000e+11 </wgt>
<wgt id='1149'> +2.8343000e+11 </wgt>
<wgt id='1150'> +2.9605283e+11 </wgt>
<wgt id='1151'> +2.7871131e+11 </wgt>
<wgt id='1152'> +2.7995962e+11 </wgt>
<wgt id='1153'> +2.8650151e+11 </wgt>
<wgt id='1154'> +2.8427215e+11 </wgt>
<wgt id='1155'> +2.9117991e+11 </wgt>
<wgt id='1156'> +2.7724587e+11 </wgt>
<wgt id='1157'> +2.7485243e+11 </wgt>
<wgt id='1158'> +2.7718795e+11 </wgt>
<wgt id='1159'> +2.9933738e+11 </wgt>
<wgt id='1160'> +2.8396299e+11 </wgt>
<wgt id='1161'> +2.8624999e+11 </wgt>
<wgt id='1162'> +2.8226688e+11 </wgt>
<wgt id='1163'> +2.8625346e+11 </wgt>
<wgt id='1164'> +2.7115354e+11 </wgt>
<wgt id='1165'> +2.7777618e+11 </wgt>
<wgt id='1166'> +2.8359617e+11 </wgt>
<wgt id='1167'> +2.7844447e+11 </wgt>
<wgt id='1168'> +2.7517275e+11 </wgt>
<wgt id='1169'> +2.7569729e+11 </wgt>
<wgt id='1170'> +2.8194886e+11 </wgt>
<wgt id='1171'> +2.7291544e+11 </wgt>
<wgt id='1172'> +2.7579783e+11 </wgt>
<wgt id='1173'> +2.8605340e+11 </wgt>
<wgt id='1174'> +2.7769139e+11 </wgt>
<wgt id='1175'> +2.7722471e+11 </wgt>
<wgt id='1176'> +2.8640258e+11 </wgt>
<wgt id='1177'> +2.7819469e+11 </wgt>
<wgt id='1178'> +2.8329085e+11 </wgt>
<wgt id='1179'> +2.8168745e+11 </wgt>
<wgt id='1180'> +2.9031285e+11 </wgt>
<wgt id='1181'> +2.8401022e+11 </wgt>
<wgt id='1182'> +2.8029143e+11 </wgt>
<wgt id='1183'> +2.9190416e+11 </wgt>
<wgt id='1184'> +2.8274751e+11 </wgt>
<wgt id='1185'> +2.8589777e+11 </wgt>
<wgt id='1186'> +2.7546190e+11 </wgt>
<wgt id='1187'> +2.8447567e+11 </wgt>
<wgt id='1188'> +2.8480435e+11 </wgt>
<wgt id='1189'> +2.8306028e+11 </wgt>
<wgt id='1190'> +2.8205994e+11 </wgt>
<wgt id='1191'> +2.9204738e+11 </wgt>
<wgt id='1192'> +2.8975555e+11 </wgt>
<wgt id='1193'> +2.9250781e+11 </wgt>
<wgt id='1194'> +2.8203267e+11 </wgt>
<wgt id='1195'> +2.8388863e+11 </wgt>
<wgt id='1196'> +2.9177842e+11 </wgt>
<wgt id='1197'> +2.9192754e+11 </wgt>
<wgt id='1198'> +2.8157960e+11 </wgt>
<wgt id='1199'> +2.8672448e+11 </wgt>
<wgt id='1200'> +2.8543417e+11 </wgt>
<wgt id='1201'> +2.8003534e+11 </wgt>
<wgt id='1202'> +2.8722292e+11 </wgt>
<wgt id='1203'> +2.7990056e+11 </wgt>
<wgt id='1204'> +2.8458475e+11 </wgt>
<wgt id='1205'> +2.8387478e+11 </wgt>
<wgt id='1206'> +2.7852474e+11 </wgt>
<wgt id='1207'> +2.9161301e+11 </wgt>
<wgt id='1208'> +2.7116532e+11 </wgt>
<wgt id='1209'> +2.8164648e+11 </wgt>
<wgt id='1210'> +2.8395440e+11 </wgt>
<wgt id='1211'> +2.8535721e+11 </wgt>
<wgt id='1212'> +2.8312981e+11 </wgt>
<wgt id='1213'> +2.9052918e+11 </wgt>
<wgt id='1214'> +2.7663728e+11 </wgt>
<wgt id='1215'> +2.8743105e+11 </wgt>
<wgt id='1216'> +2.8359700e+11 </wgt>
<wgt id='1217'> +2.7687140e+11 </wgt>
<wgt id='1218'> +2.8474579e+11 </wgt>
<wgt id='1219'> +2.9376964e+11 </wgt>
<wgt id='1220'> +2.7860643e+11 </wgt>
<wgt id='1221'> +2.7608445e+11 </wgt>
<wgt id='1222'> +2.7908586e+11 </wgt>
<wgt id='1223'> +2.7293756e+11 </wgt>
<wgt id='1224'> +2.8309817e+11 </wgt>
<wgt id='1225'> +2.8825761e+11 </wgt>
<wgt id='1226'> +2.8793326e+11 </wgt>
<wgt id='1227'> +2.7758773e+11 </wgt>
<wgt id='1228'> +2.8187013e+11 </wgt>
<wgt id='1229'> +3.0181339e+11 </wgt>
<wgt id='1230'> +2.9131627e+11 </wgt>
<wgt id='1231'> +2.7777618e+11 </wgt>
<wgt id='1232'> +2.8769890e+11 </wgt>
<wgt id='1233'> +2.7685860e+11 </wgt>
<wgt id='1234'> +2.7685294e+11 </wgt>
<wgt id='1235'> +3.0053067e+11 </wgt>
<wgt id='1236'> +2.7703233e+11 </wgt>
<wgt id='1237'> +2.8905712e+11 </wgt>
<wgt id='1238'> +2.8501802e+11 </wgt>
<wgt id='1239'> +2.8809569e+11 </wgt>
<wgt id='1240'> +2.8105177e+11 </wgt>
<wgt id='1241'> +2.8396536e+11 </wgt>
<wgt id='1242'> +2.8005118e+11 </wgt>
<wgt id='1243'> +2.8678579e+11 </wgt>
<wgt id='1244'> +2.8436074e+11 </wgt>
<wgt id='1245'> +2.8004299e+11 </wgt>
<wgt id='1246'> +3.0543772e+11 </wgt>
<wgt id='1247'> +2.8207210e+11 </wgt>
<wgt id='1248'> +2.7378382e+11 </wgt>
<wgt id='1249'> +2.7627163e+11 </wgt>
<wgt id='1250'> +2.9265917e+11 </wgt>
<wgt id='1251'> +3.0033692e+11 </wgt>
<wgt id='1252'> +2.8814460e+11 </wgt>
<wgt id='1253'> +2.8810406e+11 </wgt>
<wgt id='1254'> +2.8913026e+11 </wgt>
<wgt id='1255'> +3.0061793e+11 </wgt>
<wgt id='1256'> +3.0021407e+11 </wgt>
<wgt id='1257'> +2.9411703e+11 </wgt>
<wgt id='1258'> +2.9686935e+11 </wgt>
<wgt id='1259'> +2.9856806e+11 </wgt>
<wgt id='1260'> +3.2632417e+11 </wgt>
<wgt id='1261'> +3.1434906e+11 </wgt>
<wgt id='1262'> +2.9192409e+11 </wgt>
<wgt id='1263'> +2.9830877e+11 </wgt>
<wgt id='1264'> +3.0093249e+11 </wgt>
<wgt id='1265'> +2.9707286e+11 </wgt>
<wgt id='1266'> +2.9937453e+11 </wgt>
<wgt id='1267'> +3.2957211e+11 </wgt>
<wgt id='1268'> +2.9246361e+11 </wgt>
<wgt id='1269'> +2.8752809e+11 </wgt>
<wgt id='1270'> +2.9785029e+11 </wgt>
<wgt id='1271'> +2.7403893e+11 </wgt>
<wgt id='1272'> +2.9358248e+11 </wgt>
<wgt id='1273'> +2.9157978e+11 </wgt>
<wgt id='1274'> +2.8718058e+11 </wgt>
<wgt id='1275'> +2.9700573e+11 </wgt>
<wgt id='1276'> +2.9898615e+11 </wgt>
<wgt id='1277'> +2.9411554e+11 </wgt>
<wgt id='1278'> +2.9378685e+11 </wgt>
<wgt id='1279'> +2.8089183e+11 </wgt>
<wgt id='1280'> +2.8970612e+11 </wgt>
<wgt id='1281'> +2.8572434e+11 </wgt>
<wgt id='1282'> +2.9649128e+11 </wgt>
<wgt id='1283'> +3.0204706e+11 </wgt>
<wgt id='1284'> +3.1268315e+11 </wgt>
<wgt id='1285'> +3.0866876e+11 </wgt>
<wgt id='1286'> +3.2955286e+11 </wgt>
<wgt id='1287'> +3.0493268e+11 </wgt>
<wgt id='1288'> +3.2793505e+11 </wgt>
<wgt id='1289'> +3.1381578e+11 </wgt>
<wgt id='1290'> +3.1228693e+11 </wgt>
<wgt id='1291'> +2.7850074e+11 </wgt>
<wgt id='1292'> +3.0023449e+11 </wgt>
<wgt id='1293'> +3.0221102e+11 </wgt>
<wgt id='1294'> +3.1805193e+11 </wgt>
<wgt id='1295'> +3.0515250e+11 </wgt>
<wgt id='1296'> +3.2116833e+11 </wgt>
<wgt id='1297'> +2.9411406e+11 </wgt>
<wgt id='1298'> +2.8826710e+11 </wgt>
<wgt id='1299'> +3.0145683e+11 </wgt>
<wgt id='1300'> +2.8801056e+11 </wgt>
<wgt id='1301'> +2.8003886e+11 </wgt>
<wgt id='1302'> +2.8112062e+11 </wgt>
<wgt id='1303'> +3.0076597e+11 </wgt>
<wgt id='1304'> +3.1457386e+11 </wgt>
<wgt id='1305'> +2.9897009e+11 </wgt>
<wgt id='1306'> +3.0611344e+11 </wgt>
<wgt id='1307'> +2.9763969e+11 </wgt>
<wgt id='1308'> +3.2796506e+11 </wgt>
<wgt id='1309'> +2.9826835e+11 </wgt>
<wgt id='1310'> +3.0305855e+11 </wgt>
<wgt id='1311'> +3.0434825e+11 </wgt>
<wgt id='1312'> +3.0446562e+11 </wgt>
<wgt id='1313'> +2.9997460e+11 </wgt>
<wgt id='1314'> +3.0054774e+11 </wgt>
<wgt id='1315'> +2.8673869e+11 </wgt>
<wgt id='1316'> +2.9974002e+11 </wgt>
<wgt id='1317'> +3.0535518e+11 </wgt>
<wgt id='1318'> +2.9011763e+11 </wgt>
<wgt id='1319'> +3.0240485e+11 </wgt>
<wgt id='1320'> +3.1297696e+11 </wgt>
<wgt id='1321'> +2.9682703e+11 </wgt>
<wgt id='1322'> +3.0126996e+11 </wgt>
<wgt id='1323'> +2.9562518e+11 </wgt>
<wgt id='1324'> +3.0392306e+11 </wgt>
<wgt id='1325'> +3.1199694e+11 </wgt>
<wgt id='1326'> +3.0639502e+11 </wgt>
<wgt id='1327'> +3.0244400e+11 </wgt>
<wgt id='1328'> +2.9971085e+11 </wgt>
<wgt id='1329'> +2.9840525e+11 </wgt>
<wgt id='1330'> +2.8884011e+11 </wgt>
<wgt id='1331'> +3.2114037e+11 </wgt>
<wgt id='1332'> +2.9075828e+11 </wgt>
<wgt id='1333'> +3.0191492e+11 </wgt>
<wgt id='1334'> +3.1529998e+11 </wgt>
<wgt id='1335'> +2.9339497e+11 </wgt>
<wgt id='1336'> +3.0833782e+11 </wgt>
<wgt id='1337'> +3.0911141e+11 </wgt>
<wgt id='1338'> +2.8939628e+11 </wgt>
<wgt id='1339'> +3.1874733e+11 </wgt>
<wgt id='1340'> +3.0397905e+11 </wgt>
<wgt id='1341'> +3.1189593e+11 </wgt>
<wgt id='1342'> +3.1057446e+11 </wgt>
<wgt id='1343'> +3.0999167e+11 </wgt>
<wgt id='1344'> +3.1004890e+11 </wgt>
<wgt id='1345'> +2.7382176e+11 </wgt>
<wgt id='1346'> +3.0208609e+11 </wgt>
<wgt id='1347'> +2.8940560e+11 </wgt>
<wgt id='1348'> +2.8953748e+11 </wgt>
<wgt id='1349'> +2.8849771e+11 </wgt>
<wgt id='1350'> +3.0397973e+11 </wgt>
<wgt id='1351'> +2.9483542e+11 </wgt>
<wgt id='1352'> +3.0234537e+11 </wgt>
<wgt id='1353'> +2.9900451e+11 </wgt>
<wgt id='1354'> +3.0837619e+11 </wgt>
<wgt id='1355'> +2.7600719e+11 </wgt>
<wgt id='1356'> +2.7870693e+11 </wgt>
<wgt id='1357'> +2.7648028e+11 </wgt>
<wgt id='1358'> +2.7385151e+11 </wgt>
<wgt id='1359'> +2.7624915e+11 </wgt>
<wgt id='1360'> +2.7018631e+11 </wgt>
<wgt id='1361'> +2.7547375e+11 </wgt>
<wgt id='1362'> +2.8042841e+11 </wgt>
<wgt id='1363'> +2.7148342e+11 </wgt>
<wgt id='1364'> +2.8130078e+11 </wgt>
<wgt id='1365'> +2.7377284e+11 </wgt>
<wgt id='1366'> +2.7424887e+11 </wgt>
<wgt id='1367'> +2.7655712e+11 </wgt>
<wgt id='1368'> +2.7624090e+11 </wgt>
<wgt id='1369'> +2.7930733e+11 </wgt>
<wgt id='1370'> +2.7395550e+11 </wgt>
<wgt id='1371'> +2.7529589e+11 </wgt>
<wgt id='1372'> +2.7938129e+11 </wgt>
<wgt id='1373'> +2.7933774e+11 </wgt>
<wgt id='1374'> +2.6809930e+11 </wgt>
<wgt id='1375'> +2.7597631e+11 </wgt>
<wgt id='1376'> +2.7602293e+11 </wgt>
<wgt id='1377'> +2.7644868e+11 </wgt>
<wgt id='1378'> +2.7351631e+11 </wgt>
<wgt id='1379'> +2.7448720e+11 </wgt>
<wgt id='1380'> +2.7389580e+11 </wgt>
<wgt id='1381'> +2.8105402e+11 </wgt>
<wgt id='1382'> +2.7534416e+11 </wgt>
<wgt id='1383'> +2.7483514e+11 </wgt>
<wgt id='1384'> +2.7347903e+11 </wgt>
<wgt id='1385'> +2.7321364e+11 </wgt>
<wgt id='1386'> +2.7638839e+11 </wgt>
<wgt id='1387'> +2.7459856e+11 </wgt>
<wgt id='1388'> +2.7172140e+11 </wgt>
<wgt id='1389'> +2.7481654e+11 </wgt>
<wgt id='1390'> +2.7647178e+11 </wgt>
<wgt id='1391'> +2.7392113e+11 </wgt>
<wgt id='1392'> +2.7354946e+11 </wgt>
<wgt id='1393'> +2.7521606e+11 </wgt>
<wgt id='1394'> +2.7412590e+11 </wgt>
<wgt id='1395'> +2.7145655e+11 </wgt>
<wgt id='1396'> +2.7673203e+11 </wgt>
<wgt id='1397'> +2.7677835e+11 </wgt>
<wgt id='1398'> +2.7738983e+11 </wgt>
<wgt id='1399'> +2.7263566e+11 </wgt>
<wgt id='1400'> +2.7223948e+11 </wgt>
<wgt id='1401'> +2.7565185e+11 </wgt>
<wgt id='1402'> +2.7896773e+11 </wgt>
<wgt id='1403'> +2.8098226e+11 </wgt>
<wgt id='1404'> +2.7603144e+11 </wgt>
<wgt id='1405'> +2.8223684e+11 </wgt>
<wgt id='1406'> +2.7686131e+11 </wgt>
<wgt id='1407'> +2.7642153e+11 </wgt>
<wgt id='1408'> +2.8020934e+11 </wgt>
<wgt id='1409'> +2.7298834e+11 </wgt>
<wgt id='1410'> +2.7124784e+11 </wgt>
<wgt id='1411'> +2.7572030e+11 </wgt>
<wgt id='1412'> +2.7434064e+11 </wgt>
<wgt id='1413'> +2.7389246e+11 </wgt>
<wgt id='1414'> +2.7824398e+11 </wgt>
<wgt id='1415'> +2.8015184e+11 </wgt>
<wgt id='1416'> +2.7858104e+11 </wgt>
<wgt id='1417'> +2.7105642e+11 </wgt>
<wgt id='1418'> +2.7675654e+11 </wgt>
<wgt id='1419'> +2.7975589e+11 </wgt>
<wgt id='1420'> +2.7452374e+11 </wgt>
<wgt id='1421'> +2.8211549e+11 </wgt>
<wgt id='1422'> +2.6898153e+11 </wgt>
<wgt id='1423'> +2.8098598e+11 </wgt>
<wgt id='1424'> +2.7717742e+11 </wgt>
<wgt id='1425'> +2.7652755e+11 </wgt>
<wgt id='1426'> +2.7868032e+11 </wgt>
<wgt id='1427'> +2.7566637e+11 </wgt>
<wgt id='1428'> +2.7552780e+11 </wgt>
<wgt id='1429'> +2.7402413e+11 </wgt>
<wgt id='1430'> +2.7179730e+11 </wgt>
<wgt id='1431'> +2.7100138e+11 </wgt>
<wgt id='1432'> +2.7638480e+11 </wgt>
<wgt id='1433'> +2.7513206e+11 </wgt>
<wgt id='1434'> +2.8330695e+11 </wgt>
<wgt id='1435'> +2.7498997e+11 </wgt>
<wgt id='1436'> +2.7980931e+11 </wgt>
<wgt id='1437'> +2.7718346e+11 </wgt>
<wgt id='1438'> +2.7478030e+11 </wgt>
<wgt id='1439'> +2.7855287e+11 </wgt>
<wgt id='1440'> +2.7942935e+11 </wgt>
<wgt id='1441'> +2.7445911e+11 </wgt>
<wgt id='1442'> +2.8203606e+11 </wgt>
<wgt id='1443'> +2.7381888e+11 </wgt>
<wgt id='1444'> +2.7653985e+11 </wgt>
<wgt id='1445'> +2.7782174e+11 </wgt>
<wgt id='1446'> +2.8009030e+11 </wgt>
<wgt id='1447'> +2.7298650e+11 </wgt>
<wgt id='1448'> +2.7841995e+11 </wgt>
<wgt id='1449'> +2.7828213e+11 </wgt>
<wgt id='1450'> +2.7487042e+11 </wgt>
<wgt id='1451'> +2.7738818e+11 </wgt>
<wgt id='1452'> +2.7852816e+11 </wgt>
<wgt id='1453'> +2.7887981e+11 </wgt>
<wgt id='1454'> +2.6869749e+11 </wgt>
<wgt id='1455'> +2.7500986e+11 </wgt>
<wgt id='1456'> +2.7509909e+11 </wgt>
<wgt id='1457'> +2.7492289e+11 </wgt>
<wgt id='1458'> +2.7930658e+11 </wgt>
<wgt id='1459'> +3.0747553e+11 </wgt>
<wgt id='1460'> +3.0267328e+11 </wgt>
<wgt id='1461'> +3.5384858e+11 </wgt>
<wgt id='1462'> +2.9892114e+11 </wgt>
<wgt id='1463'> +2.9915967e+11 </wgt>
<wgt id='1464'> +2.9861521e+11 </wgt>
<wgt id='1465'> +2.9898444e+11 </wgt>
<wgt id='1466'> +2.9886329e+11 </wgt>
<wgt id='1467'> +2.9906623e+11 </wgt>
<wgt id='1468'> +2.9868306e+11 </wgt>
<wgt id='1469'> +2.9847931e+11 </wgt>
<wgt id='1470'> +2.9927997e+11 </wgt>
<wgt id='1471'> +2.9938708e+11 </wgt>
<wgt id='1472'> +2.9844122e+11 </wgt>
<wgt id='1473'> +3.0008378e+11 </wgt>
<wgt id='1474'> +2.9780444e+11 </wgt>
<wgt id='1475'> +3.0002733e+11 </wgt>
<wgt id='1476'> +2.9813689e+11 </wgt>
<wgt id='1477'> +2.9835924e+11 </wgt>
<wgt id='1478'> +3.0023376e+11 </wgt>
<wgt id='1479'> +2.9843006e+11 </wgt>
<wgt id='1480'> +2.9926548e+11 </wgt>
<wgt id='1481'> +2.9846764e+11 </wgt>
<wgt id='1482'> +2.9953321e+11 </wgt>
<wgt id='1483'> +2.9900892e+11 </wgt>
<wgt id='1484'> +2.9879722e+11 </wgt>
<wgt id='1485'> +2.9912700e+11 </wgt>
<wgt id='1486'> +2.9842539e+11 </wgt>
<wgt id='1487'> +2.9918414e+11 </wgt>
<wgt id='1488'> +2.9859164e+11 </wgt>
<wgt id='1489'> +2.9856357e+11 </wgt>
<wgt id='1490'> +2.9989059e+11 </wgt>
<wgt id='1491'> +3.0384750e+11 </wgt>
<wgt id='1492'> +2.9617320e+11 </wgt>
<wgt id='1493'> +2.9538422e+11 </wgt>
<wgt id='1494'> +3.1000967e+11 </wgt>
<wgt id='1495'> +2.9823447e+11 </wgt>
<wgt id='1496'> +2.9965793e+11 </wgt>
<wgt id='1497'> +2.9912010e+11 </wgt>
<wgt id='1498'> +2.9864921e+11 </wgt>
<wgt id='1499'> +3.0083924e+11 </wgt>
<wgt id='1500'> +2.9787237e+11 </wgt>
<wgt id='1501'> +2.9936062e+11 </wgt>
<wgt id='1502'> +2.9775719e+11 </wgt>
<wgt id='1503'> +2.9554330e+11 </wgt>
<wgt id='1504'> +3.0256050e+11 </wgt>
<wgt id='1505'> +2.9985427e+11 </wgt>
<wgt id='1506'> +2.9801706e+11 </wgt>
<wgt id='1507'> +3.0073447e+11 </wgt>
<wgt id='1508'> +2.9703213e+11 </wgt>
<wgt id='1509'> +2.9954663e+11 </wgt>
<wgt id='1510'> +2.9623335e+11 </wgt>
<wgt id='1511'> +3.0006897e+11 </wgt>
<wgt id='1512'> +2.9857926e+11 </wgt>
<wgt id='1513'> +2.9882617e+11 </wgt>
<wgt id='1514'> +2.9902199e+11 </wgt>
<wgt id='1515'> +3.0164567e+11 </wgt>
<wgt id='1516'> +2.9916660e+11 </wgt>
<wgt id='1517'> +2.9851443e+11 </wgt>
<wgt id='1518'> +2.9932039e+11 </wgt>
<wgt id='1519'> +2.9720230e+11 </wgt>
<wgt id='1520'> +3.0014277e+11 </wgt>
<wgt id='1521'> +2.9803998e+11 </wgt>
<wgt id='1522'> +2.9943866e+11 </wgt>
<wgt id='1523'> +3.0021689e+11 </wgt>
<wgt id='1524'> +3.0036223e+11 </wgt>
<wgt id='1525'> +3.0001873e+11 </wgt>
<wgt id='1526'> +2.9988012e+11 </wgt>
<wgt id='1527'> +2.9892114e+11 </wgt>
<wgt id='1528'> +2.9852127e+11 </wgt>
<wgt id='1529'> +2.9885244e+11 </wgt>
<wgt id='1530'> +2.9508688e+11 </wgt>
<wgt id='1531'> +2.9729645e+11 </wgt>
<wgt id='1532'> +2.9512139e+11 </wgt>
<wgt id='1533'> +2.9251773e+11 </wgt>
<wgt id='1534'> +2.9572268e+11 </wgt>
<wgt id='1535'> +2.9977027e+11 </wgt>
<wgt id='1536'> +2.9474159e+11 </wgt>
<wgt id='1537'> +2.9741161e+11 </wgt>
<wgt id='1538'> +2.9407739e+11 </wgt>
<wgt id='1539'> +3.0307160e+11 </wgt>
<wgt id='1540'> +2.9689878e+11 </wgt>
<wgt id='1541'> +2.9806260e+11 </wgt>
<wgt id='1542'> +2.9730332e+11 </wgt>
<wgt id='1543'> +2.9860830e+11 </wgt>
<wgt id='1544'> +2.9541446e+11 </wgt>
<wgt id='1545'> +2.9529281e+11 </wgt>
<wgt id='1546'> +2.9335574e+11 </wgt>
<wgt id='1547'> +2.9961532e+11 </wgt>
<wgt id='1548'> +2.9548750e+11 </wgt>
<wgt id='1549'> +2.9379991e+11 </wgt>
<wgt id='1550'> +2.9835056e+11 </wgt>
<wgt id='1551'> +2.9788065e+11 </wgt>
<wgt id='1552'> +2.9685901e+11 </wgt>
<wgt id='1553'> +2.9974401e+11 </wgt>
<wgt id='1554'> +2.9721318e+11 </wgt>
<wgt id='1555'> +2.9800487e+11 </wgt>
<wgt id='1556'> +2.9966019e+11 </wgt>
<wgt id='1557'> +2.9624488e+11 </wgt>
<wgt id='1558'> +2.9742371e+11 </wgt>
<wgt id='1559'> +2.9505373e+11 </wgt>
<wgt id='1560'> +2.9602810e+11 </wgt>
<wgt id='1561'> +2.9403626e+11 </wgt>
<wgt id='1562'> +2.9592614e+11 </wgt>
<wgt id='1563'> +2.9736873e+11 </wgt>
<wgt id='1564'> +2.9686260e+11 </wgt>
<wgt id='1565'> +2.9942644e+11 </wgt>
<wgt id='1566'> +2.9724756e+11 </wgt>
<wgt id='1567'> +3.0050480e+11 </wgt>
<wgt id='1568'> +2.9721444e+11 </wgt>
<wgt id='1569'> +2.9690272e+11 </wgt>
<wgt id='1570'> +3.0451339e+11 </wgt>
<wgt id='1571'> +2.9718540e+11 </wgt>
<wgt id='1572'> +2.9934779e+11 </wgt>
<wgt id='1573'> +3.0069968e+11 </wgt>
<wgt id='1574'> +2.6220065e+11 </wgt>
<wgt id='1575'> +2.6227136e+11 </wgt>
<wgt id='1576'> +2.6213279e+11 </wgt>
<wgt id='1577'> +2.6221885e+11 </wgt>
<wgt id='1578'> +2.6280436e+11 </wgt>
<wgt id='1579'> +2.6304472e+11 </wgt>
<wgt id='1580'> +2.6281551e+11 </wgt>
<wgt id='1581'> +2.6161771e+11 </wgt>
<wgt id='1582'> +2.6132296e+11 </wgt>
<wgt id='1583'> +2.6175256e+11 </wgt>
<wgt id='1584'> +2.6277553e+11 </wgt>
<wgt id='1585'> +2.6240492e+11 </wgt>
<wgt id='1586'> +2.6124337e+11 </wgt>
<wgt id='1587'> +2.6146727e+11 </wgt>
<wgt id='1588'> +2.6098284e+11 </wgt>
<wgt id='1589'> +2.6192913e+11 </wgt>
<wgt id='1590'> +2.6202666e+11 </wgt>
<wgt id='1591'> +2.6227255e+11 </wgt>
<wgt id='1592'> +2.6118448e+11 </wgt>
<wgt id='1593'> +2.6126611e+11 </wgt>
<wgt id='1594'> +2.6308788e+11 </wgt>
<wgt id='1595'> +2.5987383e+11 </wgt>
<wgt id='1596'> +2.6598735e+11 </wgt>
<wgt id='1597'> +2.6396428e+11 </wgt>
<wgt id='1598'> +2.6415860e+11 </wgt>
<wgt id='1599'> +2.5937458e+11 </wgt>
<wgt id='1600'> +2.6677221e+11 </wgt>
<wgt id='1601'> +2.6434509e+11 </wgt>
<wgt id='1602'> +2.6224762e+11 </wgt>
<wgt id='1603'> +2.7372801e+11 </wgt>
<wgt id='1604'> +2.6227251e+11 </wgt>
</rwgt>
</event>
<event>
 9      1 +2.8343000e+11 1.40000000e+03 7.81738600e-03 7.88881200e-02
       21 -1    0    0  504  503 +0.0000000000e+00 +0.0000000000e+00 +4.9124345763e+02 4.9124345763e+02 0.0000000000e+00 0.0000e+00 -1.0000e+00
       21 -1    0    0  503  504 -0.0000000000e+00 -0.0000000000e+00 -9.9746825604e+02 9.9746825604e+02 0.0000000000e+00 0.0000e+00 -1.0000e+00
       45  2    1    2    0    0 +0.0000000000e+00 +0.0000000000e+00 -5.0622479840e+02 1.4887117137e+03 1.3999996500e+03 0.0000e+00 0.0000e+00
       25  2    3    3    0    0 -4.3189119933e+01 +5.4796353285e+02 +1.9204307072e+02 5.9551106614e+02 1.2499422174e+02 0.0000e+00 0.0000e+00
       35  2    3    3    0    0 +4.3189119933e+01 -5.4796353285e+02 -6.9826786912e+02 8.9320064753e+02 9.0000257182e+01 0.0000e+00 0.0000e+00
        5  1    5    5  501    0 +1.3983403675e+01 -1.4998630510e+02 -2.5960400874e+02 3.0017232792e+02 4.2140000000e+00 0.0000e+00 -1.0000e+00
       -5  1    5    5    0  501 +2.9205716258e+01 -3.9797722775e+02 -4.3866386038e+02 5.9302831962e+02 4.2140000000e+00 0.0000e+00 -1.0000e+00
        5  1    4    4  502    0 +3.5261848430e+01 +7.6941773061e+01 +4.4458196328e+01 9.5695994760e+01 4.2140000000e+00 0.0000e+00 1.0000e+00
       -5  1    4    4    0  502 -7.8450968363e+01 +4.7102175979e+02 +1.4758487439e+02 4.9981507138e+02 4.2140000000e+00 0.0000e+00 1.0000e+00
<mgrwt>
<rscale>  0 0.13999996E+04</rscale>
<asrwt>0</asrwt>
<pdfrwt beam="1">  1       21 0.75575917E-01 0.13999996E+04</pdfrwt>
<pdfrwt beam="2">  1       21 0.15345665E+00 0.13999996E+04</pdfrwt>
<totfact> 0.32260313E+02</totfact>
</mgrwt>
<rwgt>
<wgt id='1001'> +2.8343000e+11 </wgt>
<wgt id='1002'> +2.9423498e+11 </wgt>
<wgt id='1003'> +2.9423147e+11 </wgt>
<wgt id='1004'> +3.3112778e+11 </wgt>
<wgt id='1005'> +2.8343000e+11 </wgt>
<wgt id='1006'> +2.8343000e+11 </wgt>
<wgt id='1007'> +2.9423498e+11 </wgt>
<wgt id='1008'> +2.9423147e+11 </wgt>
<wgt id='1009'> +3.3112778e+11 </wgt>
<wgt id='1010'> +2.8343000e+11 </wgt>
<wgt id='1011'> +2.8343000e+11 </wgt>
<wgt id='1012'> +2.9423498e+11 </wgt>
<wgt id='1013'> +2.9423147e+11 </wgt>
<wgt id='1014'> +3.3112778e+11 </wgt>
<wgt id='1015'> +2.8343000e+11 </wgt>
<wgt id='1016'> +2.5434610e+11 </wgt>
<wgt id='1017'> +2.6346597e+11 </wgt>
<wgt id='1018'> +2.6346302e+11 </wgt>
<wgt id='1019'> +2.9423147e+11 </wgt>
<wgt id='1020'> +2.5434609e+11 </wgt>
<wgt id='1021'> +2.5434610e+11 </wgt>
<wgt id='1022'> +2.6346597e+11 </wgt>
<wgt id='1023'> +2.6346302e+11 </wgt>
<wgt id='1024'> +2.9423147e+11 </wgt>
<wgt id='1025'> +2.5434609e+11 </wgt>
<wgt id='1026'> +2.5434610e+11 </wgt>
<wgt id='1027'> +2.6346597e+11 </wgt>
<wgt id='1028'> +2.6346302e+11 </wgt>
<wgt id='1029'> +2.9423147e+11 </wgt>
<wgt id='1030'> +2.5434609e+11 </wgt>
<wgt id='1031'> +3.1813594e+11 </wgt>
<wgt id='1032'> +3.3113200e+11 </wgt>
<wgt id='1033'> +3.3112778e+11 </wgt>
<wgt id='1034'> +3.7570904e+11 </wgt>
<wgt id='1035'> +3.1813594e+11 </wgt>
<wgt id='1036'> +3.1813594e+11 </wgt>
<wgt id='1037'> +3.3113200e+11 </wgt>
<wgt id='1038'> +3.3112778e+11 </wgt>
<wgt id='1039'> +3.7570904e+11 </wgt>
<wgt id='1040'> +3.1813594e+11 </wgt>
<wgt id='1041'> +3.1813594e+11 </wgt>
<wgt id='1042'> +3.3113200e+11 </wgt>
<wgt id='1043'> +3.3112778e+11 </wgt>
<wgt id='1044'> +3.7570904e+11 </wgt>
<wgt id='1045'> +3.1813594e+11 </wgt>
<wgt id='1046'> +2.8343000e+11 </wgt>
<wgt id='1047'> +2.8343000e+11 </wgt>
<wgt id='1048'> +2.8343000e+11 </wgt>
<wgt id='1049'> +2.8261907e+11 </wgt>
<wgt id='1050'> +2.8321363e+11 </wgt>
<wgt id='1051'> +2.8337290e+11 </wgt>
<wgt id='1052'> +2.8433928e+11 </wgt>
<wgt id='1053'> +2.8176766e+11 </wgt>
<wgt id='1054'> +2.8375625e+11 </wgt>
<wgt id='1055'> +2.8224966e+11 </wgt>
<wgt id='1056'> +2.8203532e+11 </wgt>
<wgt id='1057'> +2.8384144e+11 </wgt>
<wgt id='1058'> +2.8292322e+11 </wgt>
<wgt id='1059'> +2.8523803e+11 </wgt>
<wgt id='1060'> +2.8374895e+11 </wgt>
<wgt id='1061'> +2.8402057e+11 </wgt>
<wgt id='1062'> +2.8418202e+11 </wgt>
<wgt id='1063'> +2.8418600e+11 </wgt>
<wgt id='1064'> +2.8424393e+11 </wgt>
<wgt id='1065'> +2.8470503e+11 </wgt>
<wgt id='1066'> +2.8143509e+11 </wgt>
<wgt id='1067'> +2.8090822e+11 </wgt>
<wgt id='1068'> +2.8337365e+11 </wgt>
<wgt id='1069'> +2.8259477e+11 </wgt>
<wgt id='1070'> +2.8377027e+11 </wgt>
<wgt id='1071'> +2.8379587e+11 </wgt>
<wgt id='1072'> +2.8168145e+11 </wgt>
<wgt id='1073'> +2.8373432e+11 </wgt>
<wgt id='1074'> +2.8334151e+11 </wgt>
<wgt id='1075'> +2.8449900e+11 </wgt>
<wgt id='1076'> +2.8199401e+11 </wgt>
<wgt id='1077'> +2.8230210e+11 </wgt>
<wgt id='1078'> +2.8409046e+11 </wgt>
<wgt id='1079'> +2.8209733e+11 </wgt>
<wgt id='1080'> +2.8309187e+11 </wgt>
<wgt id='1081'> +2.8294672e+11 </wgt>
<wgt id='1082'> +2.8216285e+11 </wgt>
<wgt id='1083'> +2.8383695e+11 </wgt>
<wgt id='1084'> +2.8395399e+11 </wgt>
<wgt id='1085'> +2.8277053e+11 </wgt>
<wgt id='1086'> +2.8305036e+11 </wgt>
<wgt id='1087'> +2.8311271e+11 </wgt>
<wgt id='1088'> +2.8293148e+11 </wgt>
<wgt id='1089'> +2.8270254e+11 </wgt>
<wgt id='1090'> +2.8413680e+11 </wgt>
<wgt id='1091'> +2.8352107e+11 </wgt>
<wgt id='1092'> +2.8373276e+11 </wgt>
<wgt id='1093'> +2.8332685e+11 </wgt>
<wgt id='1094'> +2.8278144e+11 </wgt>
<wgt id='1095'> +2.8360655e+11 </wgt>
<wgt id='1096'> +2.8337911e+11 </wgt>
<wgt id='1097'> +2.8301430e+11 </wgt>
<wgt id='1098'> +2.8309673e+11 </wgt>
<wgt id='1099'> +2.8315781e+11 </wgt>
<wgt id='1100'> +2.8402740e+11 </wgt>
<wgt id='1101'> +2.8343516e+11 </wgt>
<wgt id='1102'> +2.8329954e+11 </wgt>
<wgt id='1103'> +2.8302021e+11 </wgt>
<wgt id='1104'> +2.8315793e+11 </wgt>
<wgt id='1105'> +2.8354072e+11 </wgt>
<wgt id='1106'> +2.8375549e+11 </wgt>
<wgt id='1107'> +2.8340102e+11 </wgt>
<wgt id='1108'> +2.8330277e+11 </wgt>
<wgt id='1109'> +2.8321799e+11 </wgt>
<wgt id='1110'> +2.8373669e+11 </wgt>
<wgt id='1111'> +2.8356611e+11 </wgt>
<wgt id='1112'> +2.8338538e+11 </wgt>
<wgt id='1113'> +2.8374821e+11 </wgt>
<wgt id='1114'> +2.8311415e+11 </wgt>
<wgt id='1115'> +2.8316949e+11 </wgt>
<wgt id='1116'> +2.8383818e+11 </wgt>
<wgt id='1117'> +2.8336517e+11 </wgt>
<wgt id='1118'> +2.8356516e+11 </wgt>
<wgt id='1119'> +2.8319208e+11 </wgt>
<wgt id='1120'> +2.8324100e+11 </wgt>
<wgt id='1121'> +2.8349942e+11 </wgt>
<wgt id='1122'> +2.8319466e+11 </wgt>
<wgt id='1123'> +2.8337353e+11 </wgt>
<wgt id='1124'> +2.8338861e+11 </wgt>
<wgt id='1125'> +2.8359800e+11 </wgt>
<wgt id='1126'> +2.8354058e+11 </wgt>
<wgt id='1127'> +2.8331692e+11 </wgt>
<wgt id='1128'> +2.8344189e+11 </wgt>
<wgt id='1129'> +2.8335585e+11 </wgt>
<wgt id='1130'> +2.8346836e+11 </wgt>
<wgt id='1131'> +2.8376609e+11 </wgt>
<wgt id='1132'> +2.8334987e+11 </wgt>
<wgt id='1133'> +2.8352087e+11 </wgt>
<wgt id='1134'> +2.8341676e+11 </wgt>
<wgt id='1135'> +2.8346892e+11 </wgt>
<wgt id='1136'> +2.8337358e+11 </wgt>
<wgt id='1137'> +2.8326503e+11 </wgt>
<wgt id='1138'> +2.8355576e+11 </wgt>
<wgt id='1139'> +2.8348513e+11 </wgt>
<wgt id='1140'> +2.8364673e+11 </wgt>
<wgt id='1141'> +2.8326690e+11 </wgt>
<wgt id='1142'> +2.8350152e+11 </wgt>
<wgt id='1143'> +2.8359826e+11 </wgt>
<wgt id='1144'> +2.8333678e+11 </wgt>
<wgt id='1145'> +2.8356522e+11 </wgt>
<wgt id='1146'> +2.8343837e+11 </wgt>
<wgt id='1147'> +2.8348047e+11 </wgt>
<wgt id='1148'> +2.8343000e+11 </wgt>
<wgt id='1149'> +2.8343000e+11 </wgt>
<wgt id='1150'> +2.9575036e+11 </wgt>
<wgt id='1151'> +2.7894325e+11 </wgt>
<wgt id='1152'> +2.8045781e+11 </wgt>
<wgt id='1153'> +2.8660100e+11 </wgt>
<wgt id='1154'> +2.8457873e+11 </wgt>
<wgt id='1155'> +2.9089302e+11 </wgt>
<wgt id='1156'> +2.7718602e+11 </wgt>
<wgt id='1157'> +2.7496043e+11 </wgt>
<wgt id='1158'> +2.7722616e+11 </wgt>
<wgt id='1159'> +2.9906990e+11 </wgt>
<wgt id='1160'> +2.8375590e+11 </wgt>
<wgt id='1161'> +2.8607233e+11 </wgt>
<wgt id='1162'> +2.8181330e+11 </wgt>
<wgt id='1163'> +2.8626828e+11 </wgt>
<wgt id='1164'> +2.7080873e+11 </wgt>
<wgt id='1165'> +2.7784306e+11 </wgt>
<wgt id='1166'> +2.8369535e+11 </wgt>
<wgt id='1167'> +2.7854909e+11 </wgt>
<wgt id='1168'> +2.7529609e+11 </wgt>
<wgt id='1169'> +2.7569548e+11 </wgt>
<wgt id='1170'> +2.8150531e+11 </wgt>
<wgt id='1171'> +2.7293802e+11 </wgt>
<wgt id='1172'> +2.7596083e+11 </wgt>
<wgt id='1173'> +2.8618494e+11 </wgt>
<wgt id='1174'> +2.7784796e+11 </wgt>
<wgt id='1175'> +2.7705038e+11 </wgt>
<wgt id='1176'> +2.8637829e+11 </wgt>
<wgt id='1177'> +2.7825910e+11 </wgt>
<wgt id='1178'> +2.8322556e+11 </wgt>
<wgt id='1179'> +2.8148969e+11 </wgt>
<wgt id='1180'> +2.9003782e+11 </wgt>
<wgt id='1181'> +2.8332295e+11 </wgt>
<wgt id='1182'> +2.8037454e+11 </wgt>
<wgt id='1183'> +2.9224280e+11 </wgt>
<wgt id='1184'> +2.8249184e+11 </wgt>
<wgt id='1185'> +2.8557883e+11 </wgt>
<wgt id='1186'> +2.7515588e+11 </wgt>
<wgt id='1187'> +2.8455428e+11 </wgt>
<wgt id='1188'> +2.8428356e+11 </wgt>
<wgt id='1189'> +2.8326895e+11 </wgt>
<wgt id='1190'> +2.8225197e+11 </wgt>
<wgt id='1191'> +2.9230866e+11 </wgt>
<wgt id='1192'> +2.8994067e+11 </wgt>
<wgt id='1193'> +2.9277441e+11 </wgt>
<wgt id='1194'> +2.8228376e+11 </wgt>
<wgt id='1195'> +2.8381510e+11 </wgt>
<wgt id='1196'> +2.9182350e+11 </wgt>
<wgt id='1197'> +2.9209750e+11 </wgt>
<wgt id='1198'> +2.8101770e+11 </wgt>
<wgt id='1199'> +2.8641451e+11 </wgt>
<wgt id='1200'> +2.8510926e+11 </wgt>
<wgt id='1201'> +2.7994726e+11 </wgt>
<wgt id='1202'> +2.8736256e+11 </wgt>
<wgt id='1203'> +2.7964590e+11 </wgt>
<wgt id='1204'> +2.8492850e+11 </wgt>
<wgt id='1205'> +2.8393997e+11 </wgt>
<wgt id='1206'> +2.7832419e+11 </wgt>
<wgt id='1207'> +2.9172124e+11 </wgt>
<wgt id='1208'> +2.7129217e+11 </wgt>
<wgt id='1209'> +2.8136079e+11 </wgt>
<wgt id='1210'> +2.8358738e+11 </wgt>
<wgt id='1211'> +2.8547052e+11 </wgt>
<wgt id='1212'> +2.8314812e+11 </wgt>
<wgt id='1213'> +2.9080954e+11 </wgt>
<wgt id='1214'> +2.7650068e+11 </wgt>
<wgt id='1215'> +2.8792839e+11 </wgt>
<wgt id='1216'> +2.8393281e+11 </wgt>
<wgt id='1217'> +2.7672303e+11 </wgt>
<wgt id='1218'> +2.8471687e+11 </wgt>
<wgt id='1219'> +2.9380545e+11 </wgt>
<wgt id='1220'> +2.7844837e+11 </wgt>
<wgt id='1221'> +2.7599081e+11 </wgt>
<wgt id='1222'> +2.7918143e+11 </wgt>
<wgt id='1223'> +2.7289597e+11 </wgt>
<wgt id='1224'> +2.8315110e+11 </wgt>
<wgt id='1225'> +2.8831263e+11 </wgt>
<wgt id='1226'> +2.8817492e+11 </wgt>
<wgt id='1227'> +2.7719130e+11 </wgt>
<wgt id='1228'> +2.8181165e+11 </wgt>
<wgt id='1229'> +3.0192911e+11 </wgt>
<wgt id='1230'> +2.9157981e+11 </wgt>
<wgt id='1231'> +2.7784306e+11 </wgt>
<wgt id='1232'> +2.8779577e+11 </wgt>
<wgt id='1233'> +2.7695645e+11 </wgt>
<wgt id='1234'> +2.7682635e+11 </wgt>
<wgt id='1235'> +3.0071508e+11 </wgt>
<wgt id='1236'> +2.7695846e+11 </wgt>
<wgt id='1237'> +2.8907409e+11 </wgt>
<wgt id='1238'> +2.8547608e+11 </wgt>
<wgt id='1239'> +2.8841208e+11 </wgt>
<wgt id='1240'> +2.8149117e+11 </wgt>
<wgt id='1241'> +2.8370578e+11 </wgt>
<wgt id='1242'> +2.8008353e+11 </wgt>
<wgt id='1243'> +2.8698810e+11 </wgt>
<wgt id='1244'> +2.8391620e+11 </wgt>
<wgt id='1245'> +2.8024944e+11 </wgt>
<wgt id='1246'> +3.0558946e+11 </wgt>
<wgt id='1247'> +2.8219288e+11 </wgt>
<wgt id='1248'> +2.7390158e+11 </wgt>
<wgt id='1249'> +2.7637944e+11 </wgt>
<wgt id='1250'> +2.9259939e+11 </wgt>
<wgt id='1251'> +3.0023355e+11 </wgt>
<wgt id='1252'> +2.8813142e+11 </wgt>
<wgt id='1253'> +2.8784921e+11 </wgt>
<wgt id='1254'> +2.8913474e+11 </wgt>
<wgt id='1255'> +3.0040890e+11 </wgt>
<wgt id='1256'> +2.9983544e+11 </wgt>
<wgt id='1257'> +2.9341169e+11 </wgt>
<wgt id='1258'> +2.9727113e+11 </wgt>
<wgt id='1259'> +2.9818366e+11 </wgt>
<wgt id='1260'> +3.2625762e+11 </wgt>
<wgt id='1261'> +3.1433830e+11 </wgt>
<wgt id='1262'> +2.9174883e+11 </wgt>
<wgt id='1263'> +2.9822354e+11 </wgt>
<wgt id='1264'> +3.0077422e+11 </wgt>
<wgt id='1265'> +2.9733473e+11 </wgt>
<wgt id='1266'> +2.9891028e+11 </wgt>
<wgt id='1267'> +3.2817270e+11 </wgt>
<wgt id='1268'> +2.9273846e+11 </wgt>
<wgt id='1269'> +2.8758750e+11 </wgt>
<wgt id='1270'> +2.9726612e+11 </wgt>
<wgt id='1271'> +2.7467093e+11 </wgt>
<wgt id='1272'> +2.9362944e+11 </wgt>
<wgt id='1273'> +2.9167788e+11 </wgt>
<wgt id='1274'> +2.8727534e+11 </wgt>
<wgt id='1275'> +2.9725279e+11 </wgt>
<wgt id='1276'> +2.9867824e+11 </wgt>
<wgt id='1277'> +2.9382046e+11 </wgt>
<wgt id='1278'> +2.9321163e+11 </wgt>
<wgt id='1279'> +2.8100405e+11 </wgt>
<wgt id='1280'> +2.9015504e+11 </wgt>
<wgt id='1281'> +2.8580149e+11 </wgt>
<wgt id='1282'> +2.9659347e+11 </wgt>
<wgt id='1283'> +3.0145170e+11 </wgt>
<wgt id='1284'> +3.1299702e+11 </wgt>
<wgt id='1285'> +3.0869898e+11 </wgt>
<wgt id='1286'> +3.2950804e+11 </wgt>
<wgt id='1287'> +3.0473339e+11 </wgt>
<wgt id='1288'> +3.2747273e+11 </wgt>
<wgt id='1289'> +3.1377596e+11 </wgt>
<wgt id='1290'> +3.1225627e+11 </wgt>
<wgt id='1291'> +2.7851636e+11 </wgt>
<wgt id='1292'> +3.0000527e+11 </wgt>
<wgt id='1293'> +3.0208999e+11 </wgt>
<wgt id='1294'> +3.1767365e+11 </wgt>
<wgt id='1295'> +3.0460680e+11 </wgt>
<wgt id='1296'> +3.2057152e+11 </wgt>
<wgt id='1297'> +2.9436303e+11 </wgt>
<wgt id='1298'> +2.8826268e+11 </wgt>
<wgt id='1299'> +3.0122778e+11 </wgt>
<wgt id='1300'> +2.8821166e+11 </wgt>
<wgt id='1301'> +2.8016282e+11 </wgt>
<wgt id='1302'> +2.8080914e+11 </wgt>
<wgt id='1303'> +3.0056939e+11 </wgt>
<wgt id='1304'> +3.1370108e+11 </wgt>
<wgt id='1305'> +2.9899242e+11 </wgt>
<wgt id='1306'> +3.0609757e+11 </wgt>
<wgt id='1307'> +2.9838433e+11 </wgt>
<wgt id='1308'> +3.2773693e+11 </wgt>
<wgt id='1309'> +2.9808147e+11 </wgt>
<wgt id='1310'> +3.0303575e+11 </wgt>
<wgt id='1311'> +3.0481582e+11 </wgt>
<wgt id='1312'> +3.0387030e+11 </wgt>
<wgt id='1313'> +2.9969574e+11 </wgt>
<wgt id='1314'> +3.0103403e+11 </wgt>
<wgt id='1315'> +2.8663177e+11 </wgt>
<wgt id='1316'> +2.9970380e+11 </wgt>
<wgt id='1317'> +3.0492823e+11 </wgt>
<wgt id='1318'> +2.8989796e+11 </wgt>
<wgt id='1319'> +3.0300598e+11 </wgt>
<wgt id='1320'> +3.1261601e+11 </wgt>
<wgt id='1321'> +2.9648649e+11 </wgt>
<wgt id='1322'> +3.0079164e+11 </wgt>
<wgt id='1323'> +2.9606180e+11 </wgt>
<wgt id='1324'> +3.0365572e+11 </wgt>
<wgt id='1325'> +3.1193873e+11 </wgt>
<wgt id='1326'> +3.0611535e+11 </wgt>
<wgt id='1327'> +3.0154915e+11 </wgt>
<wgt id='1328'> +3.0001905e+11 </wgt>
<wgt id='1329'> +2.9841945e+11 </wgt>
<wgt id='1330'> +2.8912495e+11 </wgt>
<wgt id='1331'> +3.2098708e+11 </wgt>
<wgt id='1332'> +2.9028628e+11 </wgt>
<wgt id='1333'> +3.0186254e+11 </wgt>
<wgt id='1334'> +3.1517005e+11 </wgt>
<wgt id='1335'> +2.9341380e+11 </wgt>
<wgt id='1336'> +3.0774194e+11 </wgt>
<wgt id='1337'> +3.0910474e+11 </wgt>
<wgt id='1338'> +2.8953831e+11 </wgt>
<wgt id='1339'> +3.1900965e+11 </wgt>
<wgt id='1340'> +3.0372278e+11 </wgt>
<wgt id='1341'> +3.1111397e+11 </wgt>
<wgt id='1342'> +3.1118719e+11 </wgt>
<wgt id='1343'> +3.1008941e+11 </wgt>
<wgt id='1344'> +3.0944100e+11 </wgt>
<wgt id='1345'> +2.7459927e+11 </wgt>
<wgt id='1346'> +3.0187176e+11 </wgt>
<wgt id='1347'> +2.8917522e+11 </wgt>
<wgt id='1348'> +2.8945492e+11 </wgt>
<wgt id='1349'> +2.8866284e+11 </wgt>
<wgt id='1350'> +3.0362932e+11 </wgt>
<wgt id='1351'> +2.9512062e+11 </wgt>
<wgt id='1352'> +3.0221736e+11 </wgt>
<wgt id='1353'> +2.9886737e+11 </wgt>
<wgt id='1354'> +3.0826939e+11 </wgt>
<wgt id='1355'> +2.7580644e+11 </wgt>
<wgt id='1356'> +2.7851110e+11 </wgt>
<wgt id='1357'> +2.7630948e+11 </wgt>
<wgt id='1358'> +2.7360272e+11 </wgt>
<wgt id='1359'> +2.7611538e+11 </wgt>
<wgt id='1360'> +2.6989054e+11 </wgt>
<wgt id='1361'> +2.7533558e+11 </wgt>
<wgt id='1362'> +2.7995863e+11 </wgt>
<wgt id='1363'> +2.7109367e+11 </wgt>
<wgt id='1364'> +2.8117448e+11 </wgt>
<wgt id='1365'> +2.7356114e+11 </wgt>
<wgt id='1366'> +2.7423560e+11 </wgt>
<wgt id='1367'> +2.7639983e+11 </wgt>
<wgt id='1368'> +2.7601822e+11 </wgt>
<wgt id='1369'> +2.7916376e+11 </wgt>
<wgt id='1370'> +2.7380241e+11 </wgt>
<wgt id='1371'> +2.7495280e+11 </wgt>
<wgt id='1372'> +2.7932009e+11 </wgt>
<wgt id='1373'> +2.7916282e+11 </wgt>
<wgt id='1374'> +2.6786180e+11 </wgt>
<wgt id='1375'> +2.7566373e+11 </wgt>
<wgt id='1376'> +2.7591166e+11 </wgt>
<wgt id='1377'> +2.7621065e+11 </wgt>
<wgt id='1378'> +2.7312644e+11 </wgt>
<wgt id='1379'> +2.7428584e+11 </wgt>
<wgt id='1380'> +2.7374460e+11 </wgt>
<wgt id='1381'> +2.8088889e+11 </wgt>
<wgt id='1382'> +2.7517928e+11 </wgt>
<wgt id='1383'> +2.7475593e+11 </wgt>
<wgt id='1384'> +2.7338716e+11 </wgt>
<wgt id='1385'> +2.7316399e+11 </wgt>
<wgt id='1386'> +2.7636399e+11 </wgt>
<wgt id='1387'> +2.7444309e+11 </wgt>
<wgt id='1388'> +2.7157457e+11 </wgt>
<wgt id='1389'> +2.7458191e+11 </wgt>
<wgt id='1390'> +2.7611082e+11 </wgt>
<wgt id='1391'> +2.7368633e+11 </wgt>
<wgt id='1392'> +2.7340357e+11 </wgt>
<wgt id='1393'> +2.7487777e+11 </wgt>
<wgt id='1394'> +2.7387449e+11 </wgt>
<wgt id='1395'> +2.7129001e+11 </wgt>
<wgt id='1396'> +2.7656328e+11 </wgt>
<wgt id='1397'> +2.7656876e+11 </wgt>
<wgt id='1398'> +2.7708327e+11 </wgt>
<wgt id='1399'> +2.7232660e+11 </wgt>
<wgt id='1400'> +2.7213338e+11 </wgt>
<wgt id='1401'> +2.7533643e+11 </wgt>
<wgt id='1402'> +2.7879994e+11 </wgt>
<wgt id='1403'> +2.8056030e+11 </wgt>
<wgt id='1404'> +2.7558828e+11 </wgt>
<wgt id='1405'> +2.8200790e+11 </wgt>
<wgt id='1406'> +2.7652709e+11 </wgt>
<wgt id='1407'> +2.7624185e+11 </wgt>
<wgt id='1408'> +2.7987184e+11 </wgt>
<wgt id='1409'> +2.7289810e+11 </wgt>
<wgt id='1410'> +2.7129752e+11 </wgt>
<wgt id='1411'> +2.7551697e+11 </wgt>
<wgt id='1412'> +2.7417414e+11 </wgt>
<wgt id='1413'> +2.7352023e+11 </wgt>
<wgt id='1414'> +2.7800013e+11 </wgt>
<wgt id='1415'> +2.8016135e+11 </wgt>
<wgt id='1416'> +2.7845018e+11 </wgt>
<wgt id='1417'> +2.7066572e+11 </wgt>
<wgt id='1418'> +2.7666061e+11 </wgt>
<wgt id='1419'> +2.7954486e+11 </wgt>
<wgt id='1420'> +2.7443878e+11 </wgt>
<wgt id='1421'> +2.8189938e+11 </wgt>
<wgt id='1422'> +2.6873820e+11 </wgt>
<wgt id='1423'> +2.8082285e+11 </wgt>
<wgt id='1424'> +2.7697613e+11 </wgt>
<wgt id='1425'> +2.7630424e+11 </wgt>
<wgt id='1426'> +2.7855813e+11 </wgt>
<wgt id='1427'> +2.7550952e+11 </wgt>
<wgt id='1428'> +2.7537244e+11 </wgt>
<wgt id='1429'> +2.7360087e+11 </wgt>
<wgt id='1430'> +2.7154083e+11 </wgt>
<wgt id='1431'> +2.7080736e+11 </wgt>
<wgt id='1432'> +2.7637154e+11 </wgt>
<wgt id='1433'> +2.7511626e+11 </wgt>
<wgt id='1434'> +2.8305787e+11 </wgt>
<wgt id='1435'> +2.7479838e+11 </wgt>
<wgt id='1436'> +2.7962748e+11 </wgt>
<wgt id='1437'> +2.7714826e+11 </wgt>
<wgt id='1438'> +2.7450525e+11 </wgt>
<wgt id='1439'> +2.7813720e+11 </wgt>
<wgt id='1440'> +2.7936607e+11 </wgt>
<wgt id='1441'> +2.7441722e+11 </wgt>
<wgt id='1442'> +2.8201682e+11 </wgt>
<wgt id='1443'> +2.7366858e+11 </wgt>
<wgt id='1444'> +2.7607440e+11 </wgt>
<wgt id='1445'> +2.7775226e+11 </wgt>
<wgt id='1446'> +2.7967459e+11 </wgt>
<wgt id='1447'> +2.7266865e+11 </wgt>
<wgt id='1448'> +2.7821201e+11 </wgt>
<wgt id='1449'> +2.7799231e+11 </wgt>
<wgt id='1450'> +2.7459963e+11 </wgt>
<wgt id='1451'> +2.7719134e+11 </wgt>
<wgt id='1452'> +2.7838587e+11 </wgt>
<wgt id='1453'> +2.7888373e+11 </wgt>
<wgt id='1454'> +2.6857820e+11 </wgt>
<wgt id='1455'> +2.7483970e+11 </wgt>
<wgt id='1456'> +2.7491957e+11 </wgt>
<wgt id='1457'> +2.7470138e+11 </wgt>
<wgt id='1458'> +2.7894265e+11 </wgt>
<wgt id='1459'> +3.0713602e+11 </wgt>
<wgt id='1460'> +3.0235123e+11 </wgt>
<wgt id='1461'> +3.5304689e+11 </wgt>
<wgt id='1462'> +2.9885705e+11 </wgt>
<wgt id='1463'> +2.9909669e+11 </wgt>
<wgt id='1464'> +2.9854970e+11 </wgt>
<wgt id='1465'> +2.9892012e+11 </wgt>
<wgt id='1466'> +2.9879941e+11 </wgt>
<wgt id='1467'> +2.9900399e+11 </wgt>
<wgt id='1468'> +2.9861594e+11 </wgt>
<wgt id='1469'> +2.9841449e+11 </wgt>
<wgt id='1470'> +2.9921648e+11 </wgt>
<wgt id='1471'> +2.9932413e+11 </wgt>
<wgt id='1472'> +2.9837596e+11 </wgt>
<wgt id='1473'> +3.0001787e+11 </wgt>
<wgt id='1474'> +2.9774209e+11 </wgt>
<wgt id='1475'> +2.9996181e+11 </wgt>
<wgt id='1476'> +2.9807381e+11 </wgt>
<wgt id='1477'> +2.9829412e+11 </wgt>
<wgt id='1478'> +3.0017206e+11 </wgt>
<wgt id='1479'> +2.9835671e+11 </wgt>
<wgt id='1480'> +2.9920767e+11 </wgt>
<wgt id='1481'> +2.9840788e+11 </wgt>
<wgt id='1482'> +2.9946322e+11 </wgt>
<wgt id='1483'> +2.9894610e+11 </wgt>
<wgt id='1484'> +2.9873121e+11 </wgt>
<wgt id='1485'> +2.9906238e+11 </wgt>
<wgt id='1486'> +2.9836259e+11 </wgt>
<wgt id='1487'> +2.9911841e+11 </wgt>
<wgt id='1488'> +2.9852946e+11 </wgt>
<wgt id='1489'> +2.9850038e+11 </wgt>
<wgt id='1490'> +2.9982405e+11 </wgt>
<wgt id='1491'> +3.0377981e+11 </wgt>
<wgt id='1492'> +2.9611092e+11 </wgt>
<wgt id='1493'> +2.9532646e+11 </wgt>
<wgt id='1494'> +3.0992529e+11 </wgt>
<wgt id='1495'> +2.9817703e+11 </wgt>
<wgt id='1496'> +2.9958666e+11 </wgt>
<wgt id='1497'> +2.9905580e+11 </wgt>
<wgt id='1498'> +2.9858538e+11 </wgt>
<wgt id='1499'> +3.0076787e+11 </wgt>
<wgt id='1500'> +2.9781219e+11 </wgt>
<wgt id='1501'> +2.9929976e+11 </wgt>
<wgt id='1502'> +2.9768437e+11 </wgt>
<wgt id='1503'> +2.9551262e+11 </wgt>
<wgt id='1504'> +3.0245380e+11 </wgt>
<wgt id='1505'> +2.9980114e+11 </wgt>
<wgt id='1506'> +2.9794327e+11 </wgt>
<wgt id='1507'> +3.0060673e+11 </wgt>
<wgt id='1508'> +2.9711081e+11 </wgt>
<wgt id='1509'> +2.9947579e+11 </wgt>
<wgt id='1510'> +2.9619867e+11 </wgt>
<wgt id='1511'> +2.9999979e+11 </wgt>
<wgt id='1512'> +2.9851837e+11 </wgt>
<wgt id='1513'> +2.9876447e+11 </wgt>
<wgt id='1514'> +2.9895403e+11 </wgt>
<wgt id='1515'> +3.0154050e+11 </wgt>
<wgt id='1516'> +2.9912918e+11 </wgt>
<wgt id='1517'> +2.9845494e+11 </wgt>
<wgt id='1518'> +2.9924408e+11 </wgt>
<wgt id='1519'> +2.9715036e+11 </wgt>
<wgt id='1520'> +3.0007024e+11 </wgt>
<wgt id='1521'> +2.9799069e+11 </wgt>
<wgt id='1522'> +2.9936711e+11 </wgt>
<wgt id='1523'> +3.0016008e+11 </wgt>
<wgt id='1524'> +3.0028710e+11 </wgt>
<wgt id='1525'> +2.9997148e+11 </wgt>
<wgt id='1526'> +2.9979318e+11 </wgt>
<wgt id='1527'> +2.9885705e+11 </wgt>
<wgt id='1528'> +2.9848555e+11 </wgt>
<wgt id='1529'> +2.9875266e+11 </wgt>
<wgt id='1530'> +2.9500278e+11 </wgt>
<wgt id='1531'> +2.9700203e+11 </wgt>
<wgt id='1532'> +2.9476191e+11 </wgt>
<wgt id='1533'> +2.9225611e+11 </wgt>
<wgt id='1534'> +2.9542099e+11 </wgt>
<wgt id='1535'> +2.9943674e+11 </wgt>
<wgt id='1536'> +2.9447726e+11 </wgt>
<wgt id='1537'> +2.9705645e+11 </wgt>
<wgt id='1538'> +2.9381104e+11 </wgt>
<wgt id='1539'> +3.0281917e+11 </wgt>
<wgt id='1540'> +2.9652814e+11 </wgt>
<wgt id='1541'> +2.9771589e+11 </wgt>
<wgt id='1542'> +2.9700292e+11 </wgt>
<wgt id='1543'> +2.9829281e+11 </wgt>
<wgt id='1544'> +2.9510813e+11 </wgt>
<wgt id='1545'> +2.9500158e+11 </wgt>
<wgt id='1546'> +2.9305841e+11 </wgt>
<wgt id='1547'> +2.9931944e+11 </wgt>
<wgt id='1548'> +2.9516220e+11 </wgt>
<wgt id='1549'> +2.9350603e+11 </wgt>
<wgt id='1550'> +2.9800914e+11 </wgt>
<wgt id='1551'> +2.9758527e+11 </wgt>
<wgt id='1552'> +2.9653406e+11 </wgt>
<wgt id='1553'> +2.9936870e+11 </wgt>
<wgt id='1554'> +2.9690794e+11 </wgt>
<wgt id='1555'> +2.9769749e+11 </wgt>
<wgt id='1556'> +2.9938005e+11 </wgt>
<wgt id='1557'> +2.9590501e+11 </wgt>
<wgt id='1558'> +2.9711309e+11 </wgt>
<wgt id='1559'> +2.9478546e+11 </wgt>
<wgt id='1560'> +2.9573571e+11 </wgt>
<wgt id='1561'> +2.9367438e+11 </wgt>
<wgt id='1562'> +2.9564173e+11 </wgt>
<wgt id='1563'> +2.9706069e+11 </wgt>
<wgt id='1564'> +2.9656466e+11 </wgt>
<wgt id='1565'> +2.9910937e+11 </wgt>
<wgt id='1566'> +2.9694975e+11 </wgt>
<wgt id='1567'> +3.0026719e+11 </wgt>
<wgt id='1568'> +2.9692352e+11 </wgt>
<wgt id='1569'> +2.9661564e+11 </wgt>
<wgt id='1570'> +3.0427122e+11 </wgt>
<wgt id='1571'> +2.9688079e+11 </wgt>
<wgt id='1572'> +2.9904616e+11 </wgt>
<wgt id='1573'> +3.0037899e+11 </wgt>
<wgt id='1574'> +2.6361397e+11 </wgt>
<wgt id='1575'> +2.6368516e+11 </wgt>
<wgt id='1576'> +2.6354606e+11 </wgt>
<wgt id='1577'> +2.6363222e+11 </wgt>
<wgt id='1578'> +2.6422040e+11 </wgt>
<wgt id='1579'> +2.6446119e+11 </wgt>
<wgt id='1580'> +2.6423259e+11 </wgt>
<wgt id='1581'> +2.6302335e+11 </wgt>
<wgt id='1582'> +2.6272650e+11 </wgt>
<wgt id='1583'> +2.6316346e+11 </wgt>
<wgt id='1584'> +2.6419143e+11 </wgt>
<wgt id='1585'> +2.6381621e+11 </wgt>
<wgt id='1586'> +2.6264571e+11 </wgt>
<wgt id='1587'> +2.6287531e+11 </wgt>
<wgt id='1588'> +2.6238735e+11 </wgt>
<wgt id='1589'> +2.6334417e+11 </wgt>
<wgt id='1590'> +2.6343848e+11 </wgt>
<wgt id='1591'> +2.6368529e+11 </wgt>
<wgt id='1592'> +2.6259420e+11 </wgt>
<wgt id='1593'> +2.6268882e+11 </wgt>
<wgt id='1594'> +2.6449053e+11 </wgt>
<wgt id='1595'> +2.6129905e+11 </wgt>
<wgt id='1596'> +2.6737177e+11 </wgt>
<wgt id='1597'> +2.6537448e+11 </wgt>
<wgt id='1598'> +2.6557273e+11 </wgt>
<wgt id='1599'> +2.6079896e+11 </wgt>
<wgt id='1600'> +2.6816309e+11 </wgt>
<wgt id='1601'> +2.6575685e+11 </wgt>
<wgt id='1602'> +2.6366265e+11 </wgt>
<wgt id='1603'> +2.7500461e+11 </wgt>
<wgt id='1604'> +2.6365213e+11 </wgt>
</rwgt>
</event>
<event>
 9      1 +2.8343000e+11 1.39999700e+03 7.81738600e-03 7.88881300e-02
       21 -1    0    0  504  503 +0.0000000000e+00 +0.0000000000e+00 +2.4382658733e+02 2.4382658733e+02 0.0000000000e+00 0.0000e+00 -1.0000e+00
       21 -1    0    0  503  504 -0.0000000000e+00 -0.0000000000e+00 -2.0096173802e+03 2.0096173802e+03 0.0000000000e+00 0.0000e+00 -1.0000e+00
       45  2    1    2    0    0 +0.0000000000e+00 -5.6843418861e-14 -1.7657907929e+03 2.2534439675e+03 1.3999973538e+03 0.0000e+00 0.0000e+00
       25  2    3    3    0    0 +1.3547594186e+02 +3.6689396010e+02 -1.8041529281e+03 1.8502858113e+03 1.2499954692e+02 0.0000e+00 0.0000e+00
       35  2    3    3    0    0 -1.3547594186e+02 -3.6689396010e+02 +3.8362135191e+01 4.0315815627e+02 8.9999648727e+01 0.0000e+00 0.0000e+00
        5  1    5    5  501    0 -3.1283905517e+01 -1.2067134722e+02 -2.7599827229e+01 1.2774883578e+02 4.2140000000e+00 0.0000e+00 1.0000e+00
       -5  1    5    5    0  501 -1.0419203634e+02 -2.4622261288e+02 +6.5961962420e+01 2.7540932049e+02 4.2140000000e+00 0.0000e+00 1.0000e+00
        5  1    4    4  502    0 +4.9372624359e+01 +4.3862142760e+01 -4.8171080088e+02 4.8623512530e+02 4.2140000000e+00 0.0000e+00 1.0000e+00
       -5  1    4    4    0  502 +8.6103317501e+01 +3.2303181734e+02 -1.3224421272e+03 1.3640506859e+03 4.2140000000e+00 0.0000e+00 1.0000e+00
<mgrwt>
<rscale>  0 0.13999974E+04</rscale>
<asrwt>0</asrwt>
<pdfrwt beam="1">  1       21 0.37511785E-01 0.13999974E+04</pdfrwt>
<pdfrwt beam="2">  1       21 0.30917189E+00 0.13999974E+04</pdfrwt>
<totfact> 0.11841922E+02</totfact>
</mgrwt>
<rwgt>
<wgt id='1001'> +2.8343000e+11 </wgt>
<wgt id='1002'> +3.1448060e+11 </wgt>
<wgt id='1003'> +3.1446854e+11 </wgt>
<wgt id='1004'> +3.5967019e+11 </wgt>
<wgt id='1005'> +2.8343000e+11 </wgt>
<wgt id='1006'> +2.8343000e+11 </wgt>
<wgt id='1007'> +3.1448060e+11 </wgt>
<wgt id='1008'> +3.1446854e+11 </wgt>
<wgt id='1009'> +3.5967019e+11 </wgt>
<wgt id='1010'> +2.8343000e+11 </wgt>
<wgt id='1011'> +2.8343000e+11 </wgt>
<wgt id='1012'> +3.1448060e+11 </wgt>
<wgt id='1013'> +3.1446854e+11 </wgt>
<wgt id='1014'> +3.5967019e+11 </wgt>
<wgt id='1015'> +2.8343000e+11 </wgt>
<wgt id='1016'> +2.5149527e+11 </wgt>
<wgt id='1017'> +2.7728107e+11 </wgt>
<wgt id='1018'> +2.7727110e+11 </wgt>
<wgt id='1019'> +3.1446854e+11 </wgt>
<wgt id='1020'> +2.5149527e+11 </wgt>
<wgt id='1021'> +2.5149527e+11 </wgt>
<wgt id='1022'> +2.7728107e+11 </wgt>
<wgt id='1023'> +2.7727110e+11 </wgt>
<wgt id='1024'> +3.1446854e+11 </wgt>
<wgt id='1025'> +2.5149527e+11 </wgt>
<wgt id='1026'> +2.5149527e+11 </wgt>
<wgt id='1027'> +2.7728107e+11 </wgt>
<wgt id='1028'> +2.7727110e+11 </wgt>
<wgt id='1029'> +3.1446854e+11 </wgt>
<wgt id='1030'> +2.5149527e+11 </wgt>
<wgt id='1031'> +3.2192692e+11 </wgt>
<wgt id='1032'> +3.5968492e+11 </wgt>
<wgt id='1033'> +3.5967019e+11 </wgt>
<wgt id='1034'> +4.1526227e+11 </wgt>
<wgt id='1035'> +3.2192692e+11 </wgt>
<wgt id='1036'> +3.2192692e+11 </wgt>
<wgt id='1037'> +3.5968492e+11 </wgt>
<wgt id='1038'> +3.5967019e+11 </wgt>
<wgt id='1039'> +4.1526227e+11 </wgt>
<wgt id='1040'> +3.2192692e+11 </wgt>
<wgt id='1041'> +3.2192692e+11 </wgt>
<wgt id='1042'> +3.5968492e+11 </wgt>
<wgt id='1043'> +3.5967019e+11 </wgt>
<wgt id='1044'> +4.1526227e+11 </wgt>
<wgt id='1045'> +3.2192692e+11 </wgt>
<wgt id='1046'> +2.8343000e+11 </wgt>
<wgt id='1047'> +2.8343000e+11 </wgt>
<wgt id='1048'> +2.8343000e+11 </wgt>
<wgt id='1049'> +2.8343188e+11 </wgt>
<wgt id='1050'> +2.8235186e+11 </wgt>
<wgt id='1051'> +2.8339995e+11 </wgt>
<wgt id='1052'> +2.8354415e+11 </wgt>
<wgt id='1053'> +2.8188984e+11 </wgt>
<wgt id='1054'> +2.8562877e+11 </wgt>
<wgt id='1055'> +2.8201291e+11 </wgt>
<wgt id='1056'> +2.8167248e+11 </wgt>
<wgt id='1057'> +2.8261340e+11 </wgt>
<wgt id='1058'> +2.8362336e+11 </wgt>
<wgt id='1059'> +2.8552820e+11 </wgt>
<wgt id='1060'> +2.8274585e+11 </wgt>
<wgt id='1061'> +2.8469895e+11 </wgt>
<wgt id='1062'> +2.8531958e+11 </wgt>
<wgt id='1063'> +2.8462264e+11 </wgt>
<wgt id='1064'> +2.8522649e+11 </wgt>
<wgt id='1065'> +2.8535817e+11 </wgt>
<wgt id='1066'> +2.8251454e+11 </wgt>
<wgt id='1067'> +2.8184187e+11 </wgt>
<wgt id='1068'> +2.8423354e+11 </wgt>
<wgt id='1069'> +2.8247979e+11 </wgt>
<wgt id='1070'> +2.8242869e+11 </wgt>
<wgt id='1071'> +2.8526443e+11 </wgt>
<wgt id='1072'> +2.8079670e+11 </wgt>
<wgt id='1073'> +2.8375101e+11 </wgt>
<wgt id='1074'> +2.8348469e+11 </wgt>
<wgt id='1075'> +2.8120006e+11 </wgt>
<wgt id='1076'> +2.8433384e+11 </wgt>
<wgt id='1077'> +2.7998976e+11 </wgt>
<wgt id='1078'> +2.8138245e+11 </wgt>
<wgt id='1079'> +2.8305214e+11 </wgt>
<wgt id='1080'> +2.8335422e+11 </wgt>
<wgt id='1081'> +2.8296487e+11 </wgt>
<wgt id='1082'> +2.8333045e+11 </wgt>
<wgt id='1083'> +2.8405850e+11 </wgt>
<wgt id='1084'> +2.8390579e+11 </wgt>
<wgt id='1085'> +2.8200975e+11 </wgt>
<wgt id='1086'> +2.8570460e+11 </wgt>
<wgt id='1087'> +2.8428215e+11 </wgt>
<wgt id='1088'> +2.8300104e+11 </wgt>
<wgt id='1089'> +2.8268872e+11 </wgt>
<wgt id='1090'> +2.8433251e+11 </wgt>
<wgt id='1091'> +2.8390158e+11 </wgt>
<wgt id='1092'> +2.8319491e+11 </wgt>
<wgt id='1093'> +2.8306133e+11 </wgt>
<wgt id='1094'> +2.8150656e+11 </wgt>
<wgt id='1095'> +2.8406214e+11 </wgt>
<wgt id='1096'> +2.8369055e+11 </wgt>
<wgt id='1097'> +2.8243976e+11 </wgt>
<wgt id='1098'> +2.8322408e+11 </wgt>
<wgt id='1099'> +2.8369206e+11 </wgt>
<wgt id='1100'> +2.8367163e+11 </wgt>
<wgt id='1101'> +2.8354669e+11 </wgt>
<wgt id='1102'> +2.8333903e+11 </wgt>
<wgt id='1103'> +2.8165060e+11 </wgt>
<wgt id='1104'> +2.8387564e+11 </wgt>
<wgt id='1105'> +2.8360126e+11 </wgt>
<wgt id='1106'> +2.8401409e+11 </wgt>
<wgt id='1107'> +2.8412175e+11 </wgt>
<wgt id='1108'> +2.8308239e+11 </wgt>
<wgt id='1109'> +2.8368136e+11 </wgt>
<wgt id='1110'> +2.8335340e+11 </wgt>
<wgt id='1111'> +2.8457944e+11 </wgt>
<wgt id='1112'> +2.8293628e+11 </wgt>
<wgt id='1113'> +2.8372844e+11 </wgt>
<wgt id='1114'> +2.8310370e+11 </wgt>
<wgt id='1115'> +2.8207615e+11 </wgt>
<wgt id='1116'> +2.8479055e+11 </wgt>
<wgt id='1117'> +2.8324824e+11 </wgt>
<wgt id='1118'> +2.8429214e+11 </wgt>
<wgt id='1119'> +2.8243973e+11 </wgt>
<wgt id='1120'> +2.8223081e+11 </wgt>
<wgt id='1121'> +2.8328180e+11 </wgt>
<wgt id='1122'> +2.8252750e+11 </wgt>
<wgt id='1123'> +2.8336904e+11 </wgt>
<wgt id='1124'> +2.8381898e+11 </wgt>
<wgt id='1125'> +2.8360565e+11 </wgt>
<wgt id='1126'> +2.8364223e+11 </wgt>
<wgt id='1127'> +2.8339836e+11 </wgt>
<wgt id='1128'> +2.8322591e+11 </wgt>
<wgt id='1129'> +2.8297531e+11 </wgt>
<wgt id='1130'> +2.8346809e+11 </wgt>
<wgt id='1131'> +2.8459618e+11 </wgt>
<wgt id='1132'> +2.8314433e+11 </wgt>
<wgt id='1133'> +2.8372673e+11 </wgt>
<wgt id='1134'> +2.8330667e+11 </wgt>
<wgt id='1135'> +2.8353420e+11 </wgt>
<wgt id='1136'> +2.8310803e+11 </wgt>
<wgt id='1137'> +2.8296211e+11 </wgt>
<wgt id='1138'> +2.8363940e+11 </wgt>
<wgt id='1139'> +2.8379802e+11 </wgt>
<wgt id='1140'> +2.8389646e+11 </wgt>
<wgt id='1141'> +2.8291872e+11 </wgt>
<wgt id='1142'> +2.8346120e+11 </wgt>
<wgt id='1143'> +2.8382047e+11 </wgt>
<wgt id='1144'> +2.8334146e+11 </wgt>
<wgt id='1145'> +2.8370790e+11 </wgt>
<wgt id='1146'> +2.8368458e+11 </wgt>
<wgt id='1147'> +2.8354627e+11 </wgt>
<wgt id='1148'> +2.8343000e+11 </wgt>
<wgt id='1149'> +2.8343000e+11 </wgt>
<wgt id='1150'> +2.8043572e+11 </wgt>
<wgt id='1151'> +2.7944343e+11 </wgt>
<wgt id='1152'> +2.8446094e+11 </wgt>
<wgt id='1153'> +2.8554500e+11 </wgt>
<wgt id='1154'> +2.6893870e+11 </wgt>
<wgt id='1155'> +3.0140248e+11 </wgt>
<wgt id='1156'> +2.8737625e+11 </wgt>
<wgt id='1157'> +2.8249491e+11 </wgt>
<wgt id='1158'> +2.8233235e+11 </wgt>
<wgt id='1159'> +2.9203678e+11 </wgt>
<wgt id='1160'> +2.6631454e+11 </wgt>
<wgt id='1161'> +3.0017465e+11 </wgt>
<wgt id='1162'> +2.8030572e+11 </wgt>
<wgt id='1163'> +2.8674496e+11 </wgt>
<wgt id='1164'> +2.6451706e+11 </wgt>
<wgt id='1165'> +2.7752817e+11 </wgt>
<wgt id='1166'> +2.8156702e+11 </wgt>
<wgt id='1167'> +2.7968651e+11 </wgt>
<wgt id='1168'> +2.6443624e+11 </wgt>
<wgt id='1169'> +2.6891155e+11 </wgt>
<wgt id='1170'> +2.8254356e+11 </wgt>
<wgt id='1171'> +2.7195060e+11 </wgt>
<wgt id='1172'> +2.6455104e+11 </wgt>
<wgt id='1173'> +2.8917792e+11 </wgt>
<wgt id='1174'> +2.8236657e+11 </wgt>
<wgt id='1175'> +2.7728973e+11 </wgt>
<wgt id='1176'> +2.9004455e+11 </wgt>
<wgt id='1177'> +2.9245744e+11 </wgt>
<wgt id='1178'> +2.8254563e+11 </wgt>
<wgt id='1179'> +2.9782943e+11 </wgt>
<wgt id='1180'> +2.9115903e+11 </wgt>
<wgt id='1181'> +2.7605918e+11 </wgt>
<wgt id='1182'> +2.8211119e+11 </wgt>
<wgt id='1183'> +2.9396703e+11 </wgt>
<wgt id='1184'> +2.7019366e+11 </wgt>
<wgt id='1185'> +2.9031356e+11 </wgt>
<wgt id='1186'> +2.7381959e+11 </wgt>
<wgt id='1187'> +2.9878727e+11 </wgt>
<wgt id='1188'> +2.9762854e+11 </wgt>
<wgt id='1189'> +2.9379346e+11 </wgt>
<wgt id='1190'> +2.8607351e+11 </wgt>
<wgt id='1191'> +3.0523507e+11 </wgt>
<wgt id='1192'> +2.8706195e+11 </wgt>
<wgt id='1193'> +2.8749940e+11 </wgt>
<wgt id='1194'> +2.7028019e+11 </wgt>
<wgt id='1195'> +2.9283915e+11 </wgt>
<wgt id='1196'> +2.7781808e+11 </wgt>
<wgt id='1197'> +2.9022872e+11 </wgt>
<wgt id='1198'> +2.7505295e+11 </wgt>
<wgt id='1199'> +2.8813720e+11 </wgt>
<wgt id='1200'> +2.8443648e+11 </wgt>
<wgt id='1201'> +2.9401280e+11 </wgt>
<wgt id='1202'> +2.7734900e+11 </wgt>
<wgt id='1203'> +2.8870167e+11 </wgt>
<wgt id='1204'> +2.7100122e+11 </wgt>
<wgt id='1205'> +2.9457673e+11 </wgt>
<wgt id='1206'> +2.7505126e+11 </wgt>
<wgt id='1207'> +2.9928905e+11 </wgt>
<wgt id='1208'> +2.8210173e+11 </wgt>
<wgt id='1209'> +2.7822424e+11 </wgt>
<wgt id='1210'> +2.8494019e+11 </wgt>
<wgt id='1211'> +2.8838509e+11 </wgt>
<wgt id='1212'> +2.7024688e+11 </wgt>
<wgt id='1213'> +2.7756182e+11 </wgt>
<wgt id='1214'> +2.7846651e+11 </wgt>
<wgt id='1215'> +2.9667043e+11 </wgt>
<wgt id='1216'> +2.7780121e+11 </wgt>
<wgt id='1217'> +2.8541720e+11 </wgt>
<wgt id='1218'> +2.7641265e+11 </wgt>
<wgt id='1219'> +2.8322238e+11 </wgt>
<wgt id='1220'> +2.7467909e+11 </wgt>
<wgt id='1221'> +2.6533635e+11 </wgt>
<wgt id='1222'> +2.7724887e+11 </wgt>
<wgt id='1223'> +2.7550770e+11 </wgt>
<wgt id='1224'> +2.8011108e+11 </wgt>
<wgt id='1225'> +2.7941941e+11 </wgt>
<wgt id='1226'> +2.8307574e+11 </wgt>
<wgt id='1227'> +2.6436708e+11 </wgt>
<wgt id='1228'> +2.6994434e+11 </wgt>
<wgt id='1229'> +2.9400557e+11 </wgt>
<wgt id='1230'> +2.8499185e+11 </wgt>
<wgt id='1231'> +2.7752817e+11 </wgt>
<wgt id='1232'> +2.9090148e+11 </wgt>
<wgt id='1233'> +2.8088668e+11 </wgt>
<wgt id='1234'> +2.8875235e+11 </wgt>
<wgt id='1235'> +3.0692992e+11 </wgt>
<wgt id='1236'> +2.9059752e+11 </wgt>
<wgt id='1237'> +2.9585856e+11 </wgt>
<wgt id='1238'> +3.1283265e+11 </wgt>
<wgt id='1239'> +2.9538217e+11 </wgt>
<wgt id='1240'> +2.8307444e+11 </wgt>
<wgt id='1241'> +2.8415832e+11 </wgt>
<wgt id='1242'> +2.8399719e+11 </wgt>
<wgt id='1243'> +2.7455131e+11 </wgt>
<wgt id='1244'> +2.8849073e+11 </wgt>
<wgt id='1245'> +2.7206356e+11 </wgt>
<wgt id='1246'> +3.0283924e+11 </wgt>
<wgt id='1247'> +2.7784267e+11 </wgt>
<wgt id='1248'> +2.7584908e+11 </wgt>
<wgt id='1249'> +2.7583250e+11 </wgt>
<wgt id='1250'> +2.9844430e+11 </wgt>
<wgt id='1251'> +3.1226422e+11 </wgt>
<wgt id='1252'> +2.8639529e+11 </wgt>
<wgt id='1253'> +3.1909798e+11 </wgt>
<wgt id='1254'> +2.9341101e+11 </wgt>
<wgt id='1255'> +3.2047362e+11 </wgt>
<wgt id='1256'> +3.1476832e+11 </wgt>
<wgt id='1257'> +2.8467009e+11 </wgt>
<wgt id='1258'> +2.9650484e+11 </wgt>
<wgt id='1259'> +3.3310295e+11 </wgt>
<wgt id='1260'> +3.5747190e+11 </wgt>
<wgt id='1261'> +3.4337351e+11 </wgt>
<wgt id='1262'> +3.0729796e+11 </wgt>
<wgt id='1263'> +3.1382229e+11 </wgt>
<wgt id='1264'> +3.0431976e+11 </wgt>
<wgt id='1265'> +2.8243426e+11 </wgt>
<wgt id='1266'> +3.0565246e+11 </wgt>
<wgt id='1267'> +4.1121906e+11 </wgt>
<wgt id='1268'> +2.8345074e+11 </wgt>
<wgt id='1269'> +2.7757088e+11 </wgt>
<wgt id='1270'> +3.3011781e+11 </wgt>
<wgt id='1271'> +2.4118019e+11 </wgt>
<wgt id='1272'> +3.0391193e+11 </wgt>
<wgt id='1273'> +2.9531605e+11 </wgt>
<wgt id='1274'> +2.9650668e+11 </wgt>
<wgt id='1275'> +2.8820713e+11 </wgt>
<wgt id='1276'> +3.2338424e+11 </wgt>
<wgt id='1277'> +3.2915003e+11 </wgt>
<wgt id='1278'> +3.1658948e+11 </wgt>
<wgt id='1279'> +2.7408242e+11 </wgt>
<wgt id='1280'> +3.1260602e+11 </wgt>
<wgt id='1281'> +2.8392127e+11 </wgt>
<wgt id='1282'> +2.9035957e+11 </wgt>
<wgt id='1283'> +3.3777546e+11 </wgt>
<wgt id='1284'> +2.9237683e+11 </wgt>
<wgt id='1285'> +2.9149144e+11 </wgt>
<wgt id='1286'> +3.7002818e+11 </wgt>
<wgt id='1287'> +3.7448175e+11 </wgt>
<wgt id='1288'> +3.9508277e+11 </wgt>
<wgt id='1289'> +3.3699090e+11 </wgt>
<wgt id='1290'> +3.1971402e+11 </wgt>
<wgt id='1291'> +2.8531969e+11 </wgt>
<wgt id='1292'> +3.1599714e+11 </wgt>
<wgt id='1293'> +3.0496678e+11 </wgt>
<wgt id='1294'> +3.7602424e+11 </wgt>
<wgt id='1295'> +3.2092477e+11 </wgt>
<wgt id='1296'> +3.7975676e+11 </wgt>
<wgt id='1297'> +2.7660234e+11 </wgt>
<wgt id='1298'> +2.9511799e+11 </wgt>
<wgt id='1299'> +3.1072133e+11 </wgt>
<wgt id='1300'> +2.5136537e+11 </wgt>
<wgt id='1301'> +2.6976044e+11 </wgt>
<wgt id='1302'> +2.6999747e+11 </wgt>
<wgt id='1303'> +3.1569744e+11 </wgt>
<wgt id='1304'> +3.6875034e+11 </wgt>
<wgt id='1305'> +2.9393062e+11 </wgt>
<wgt id='1306'> +3.0632165e+11 </wgt>
<wgt id='1307'> +2.6753169e+11 </wgt>
<wgt id='1308'> +3.4706014e+11 </wgt>
<wgt id='1309'> +3.1862460e+11 </wgt>
<wgt id='1310'> +3.1008724e+11 </wgt>
<wgt id='1311'> +2.8574353e+11 </wgt>
<wgt id='1312'> +3.6341903e+11 </wgt>
<wgt id='1313'> +3.2975758e+11 </wgt>
<wgt id='1314'> +2.6959579e+11 </wgt>
<wgt id='1315'> +2.7773665e+11 </wgt>
<wgt id='1316'> +3.0053720e+11 </wgt>
<wgt id='1317'> +3.6150053e+11 </wgt>
<wgt id='1318'> +2.8941380e+11 </wgt>
<wgt id='1319'> +3.0599399e+11 </wgt>
<wgt id='1320'> +3.3288278e+11 </wgt>
<wgt id='1321'> +3.2261417e+11 </wgt>
<wgt id='1322'> +3.3128196e+11 </wgt>
<wgt id='1323'> +2.6134413e+11 </wgt>
<wgt id='1324'> +3.3160091e+11 </wgt>
<wgt id='1325'> +3.2165079e+11 </wgt>
<wgt id='1326'> +3.2717248e+11 </wgt>
<wgt id='1327'> +3.3939551e+11 </wgt>
<wgt id='1328'> +3.2642787e+11 </wgt>
<wgt id='1329'> +2.8779287e+11 </wgt>
<wgt id='1330'> +2.7227443e+11 </wgt>
<wgt id='1331'> +3.3498050e+11 </wgt>
<wgt id='1332'> +3.2541189e+11 </wgt>
<wgt id='1333'> +3.0536426e+11 </wgt>
<wgt id='1334'> +3.4995681e+11 </wgt>
<wgt id='1335'> +2.6935727e+11 </wgt>
<wgt id='1336'> +3.6125538e+11 </wgt>
<wgt id='1337'> +3.1537767e+11 </wgt>
<wgt id='1338'> +2.7765213e+11 </wgt>
<wgt id='1339'> +2.9218391e+11 </wgt>
<wgt id='1340'> +3.5119359e+11 </wgt>
<wgt id='1341'> +3.9628880e+11 </wgt>
<wgt id='1342'> +2.7952670e+11 </wgt>
<wgt id='1343'> +3.1501602e+11 </wgt>
<wgt id='1344'> +3.4003510e+11 </wgt>
<wgt id='1345'> +2.2085700e+11 </wgt>
<wgt id='1346'> +3.0763933e+11 </wgt>
<wgt id='1347'> +3.0957119e+11 </wgt>
<wgt id='1348'> +2.8112850e+11 </wgt>
<wgt id='1349'> +2.9281054e+11 </wgt>
<wgt id='1350'> +3.5811077e+11 </wgt>
<wgt id='1351'> +2.8636996e+11 </wgt>
<wgt id='1352'> +3.1464740e+11 </wgt>
<wgt id='1353'> +3.1787152e+11 </wgt>
<wgt id='1354'> +3.2137117e+11 </wgt>
<wgt id='1355'> +2.8437144e+11 </wgt>
<wgt id='1356'> +2.8778772e+11 </wgt>
<wgt id='1357'> +2.8861092e+11 </wgt>
<wgt id='1358'> +2.8019285e+11 </wgt>
<wgt id='1359'> +2.8194472e+11 </wgt>
<wgt id='1360'> +2.7747411e+11 </wgt>
<wgt id='1361'> +2.8341775e+11 </wgt>
<wgt id='1362'> +2.9268435e+11 </wgt>
<wgt id='1363'> +2.8162326e+11 </wgt>
<wgt id='1364'> +3.0506265e+11 </wgt>
<wgt id='1365'> +2.8075025e+11 </wgt>
<wgt id='1366'> +2.8462531e+11 </wgt>
<wgt id='1367'> +2.7682538e+11 </wgt>
<wgt id='1368'> +2.9276655e+11 </wgt>
<wgt id='1369'> +2.8697492e+11 </wgt>
<wgt id='1370'> +2.7234086e+11 </wgt>
<wgt id='1371'> +2.7578253e+11 </wgt>
<wgt id='1372'> +2.7576387e+11 </wgt>
<wgt id='1373'> +2.9565049e+11 </wgt>
<wgt id='1374'> +2.8443401e+11 </wgt>
<wgt id='1375'> +2.8684059e+11 </wgt>
<wgt id='1376'> +2.8722337e+11 </wgt>
<wgt id='1377'> +2.8244297e+11 </wgt>
<wgt id='1378'> +2.9088860e+11 </wgt>
<wgt id='1379'> +2.7991494e+11 </wgt>
<wgt id='1380'> +2.8103876e+11 </wgt>
<wgt id='1381'> +2.8831857e+11 </wgt>
<wgt id='1382'> +2.7723639e+11 </wgt>
<wgt id='1383'> +2.8069540e+11 </wgt>
<wgt id='1384'> +2.7193280e+11 </wgt>
<wgt id='1385'> +2.7962279e+11 </wgt>
<wgt id='1386'> +2.8058754e+11 </wgt>
<wgt id='1387'> +2.8748203e+11 </wgt>
<wgt id='1388'> +2.8364742e+11 </wgt>
<wgt id='1389'> +2.7644867e+11 </wgt>
<wgt id='1390'> +2.8732679e+11 </wgt>
<wgt id='1391'> +2.9459893e+11 </wgt>
<wgt id='1392'> +2.7204687e+11 </wgt>
<wgt id='1393'> +2.9007021e+11 </wgt>
<wgt id='1394'> +2.9022464e+11 </wgt>
<wgt id='1395'> +2.7226312e+11 </wgt>
<wgt id='1396'> +2.8380751e+11 </wgt>
<wgt id='1397'> +2.8193295e+11 </wgt>
<wgt id='1398'> +2.9948098e+11 </wgt>
<wgt id='1399'> +2.7874012e+11 </wgt>
<wgt id='1400'> +2.7775311e+11 </wgt>
<wgt id='1401'> +2.7768031e+11 </wgt>
<wgt id='1402'> +2.8640532e+11 </wgt>
<wgt id='1403'> +2.9936153e+11 </wgt>
<wgt id='1404'> +2.8714749e+11 </wgt>
<wgt id='1405'> +3.0186209e+11 </wgt>
<wgt id='1406'> +2.9332071e+11 </wgt>
<wgt id='1407'> +2.9702590e+11 </wgt>
<wgt id='1408'> +3.0223062e+11 </wgt>
<wgt id='1409'> +2.7653883e+11 </wgt>
<wgt id='1410'> +2.8182468e+11 </wgt>
<wgt id='1411'> +2.8343767e+11 </wgt>
<wgt id='1412'> +2.9692559e+11 </wgt>
<wgt id='1413'> +2.9403691e+11 </wgt>
<wgt id='1414'> +2.8858050e+11 </wgt>
<wgt id='1415'> +2.7524691e+11 </wgt>
<wgt id='1416'> +2.8352622e+11 </wgt>
<wgt id='1417'> +2.7605727e+11 </wgt>
<wgt id='1418'> +2.8075538e+11 </wgt>
<wgt id='1419'> +2.8535349e+11 </wgt>
<wgt id='1420'> +2.6609603e+11 </wgt>
<wgt id='1421'> +2.9646314e+11 </wgt>
<wgt id='1422'> +2.6982039e+11 </wgt>
<wgt id='1423'> +2.8419365e+11 </wgt>
<wgt id='1424'> +2.7824960e+11 </wgt>
<wgt id='1425'> +2.8172053e+11 </wgt>
<wgt id='1426'> +2.9230620e+11 </wgt>
<wgt id='1427'> +2.7799789e+11 </wgt>
<wgt id='1428'> +2.7588831e+11 </wgt>
<wgt id='1429'> +2.8321119e+11 </wgt>
<wgt id='1430'> +2.7873372e+11 </wgt>
<wgt id='1431'> +2.8987472e+11 </wgt>
<wgt id='1432'> +2.7298137e+11 </wgt>
<wgt id='1433'> +2.7372892e+11 </wgt>
<wgt id='1434'> +2.8094454e+11 </wgt>
<wgt id='1435'> +2.8924250e+11 </wgt>
<wgt id='1436'> +2.8575714e+11 </wgt>
<wgt id='1437'> +2.8318636e+11 </wgt>
<wgt id='1438'> +2.8250400e+11 </wgt>
<wgt id='1439'> +2.9394946e+11 </wgt>
<wgt id='1440'> +2.8374553e+11 </wgt>
<wgt id='1441'> +2.8066893e+11 </wgt>
<wgt id='1442'> +2.8395061e+11 </wgt>
<wgt id='1443'> +2.7410516e+11 </wgt>
<wgt id='1444'> +2.9680825e+11 </wgt>
<wgt id='1445'> +2.7715823e+11 </wgt>
<wgt id='1446'> +3.0217707e+11 </wgt>
<wgt id='1447'> +2.9319700e+11 </wgt>
<wgt id='1448'> +2.8857288e+11 </wgt>
<wgt id='1449'> +2.8405538e+11 </wgt>
<wgt id='1450'> +2.7917945e+11 </wgt>
<wgt id='1451'> +2.7614587e+11 </wgt>
<wgt id='1452'> +2.9049092e+11 </wgt>
<wgt id='1453'> +2.9745782e+11 </wgt>
<wgt id='1454'> +2.7382568e+11 </wgt>
<wgt id='1455'> +2.8438175e+11 </wgt>
<wgt id='1456'> +2.7984024e+11 </wgt>
<wgt id='1457'> +2.8778538e+11 </wgt>
<wgt id='1458'> +2.9633698e+11 </wgt>
<wgt id='1459'> +3.1354065e+11 </wgt>
<wgt id='1460'> +3.0733440e+11 </wgt>
<wgt id='1461'> +3.8105578e+11 </wgt>
<wgt id='1462'> +3.1522986e+11 </wgt>
<wgt id='1463'> +3.1543932e+11 </wgt>
<wgt id='1464'> +3.1496120e+11 </wgt>
<wgt id='1465'> +3.1530837e+11 </wgt>
<wgt id='1466'> +3.1515815e+11 </wgt>
<wgt id='1467'> +3.1530481e+11 </wgt>
<wgt id='1468'> +3.1510687e+11 </wgt>
<wgt id='1469'> +3.1477894e+11 </wgt>
<wgt id='1470'> +3.1559602e+11 </wgt>
<wgt id='1471'> +3.1567827e+11 </wgt>
<wgt id='1472'> +3.1476797e+11 </wgt>
<wgt id='1473'> +3.1654542e+11 </wgt>
<wgt id='1474'> +3.1396613e+11 </wgt>
<wgt id='1475'> +3.1643599e+11 </wgt>
<wgt id='1476'> +3.1437523e+11 </wgt>
<wgt id='1477'> +3.1466298e+11 </wgt>
<wgt id='1478'> +3.1655470e+11 </wgt>
<wgt id='1479'> +3.1503156e+11 </wgt>
<wgt id='1480'> +3.1537736e+11 </wgt>
<wgt id='1481'> +3.1433307e+11 </wgt>
<wgt id='1482'> +3.1644859e+11 </wgt>
<wgt id='1483'> +3.1522643e+11 </wgt>
<wgt id='1484'> +3.1524604e+11 </wgt>
<wgt id='1485'> +3.1539908e+11 </wgt>
<wgt id='1486'> +3.1482132e+11 </wgt>
<wgt id='1487'> +3.1545670e+11 </wgt>
<wgt id='1488'> +3.1493673e+11 </wgt>
<wgt id='1489'> +3.1481112e+11 </wgt>
<wgt id='1490'> +3.1636601e+11 </wgt>
<wgt id='1491'> +3.2095231e+11 </wgt>
<wgt id='1492'> +3.1204322e+11 </wgt>
<wgt id='1493'> +3.1115954e+11 </wgt>
<wgt id='1494'> +3.2798954e+11 </wgt>
<wgt id='1495'> +3.1400648e+11 </wgt>
<wgt id='1496'> +3.1654623e+11 </wgt>
<wgt id='1497'> +3.1552856e+11 </wgt>
<wgt id='1498'> +3.1482376e+11 </wgt>
<wgt id='1499'> +3.1798283e+11 </wgt>
<wgt id='1500'> +3.1373211e+11 </wgt>
<wgt id='1501'> +3.1514621e+11 </wgt>
<wgt id='1502'> +3.1549630e+11 </wgt>
<wgt id='1503'> +3.0754945e+11 </wgt>
<wgt id='1504'> +3.2428385e+11 </wgt>
<wgt id='1505'> +3.1523400e+11 </wgt>
<wgt id='1506'> +3.1523682e+11 </wgt>
<wgt id='1507'> +3.2277627e+11 </wgt>
<wgt id='1508'> +3.0083547e+11 </wgt>
<wgt id='1509'> +3.1647459e+11 </wgt>
<wgt id='1510'> +3.0982680e+11 </wgt>
<wgt id='1511'> +3.1626478e+11 </wgt>
<wgt id='1512'> +3.1543138e+11 </wgt>
<wgt id='1513'> +3.1472245e+11 </wgt>
<wgt id='1514'> +3.1580146e+11 </wgt>
<wgt id='1515'> +3.2298531e+11 </wgt>
<wgt id='1516'> +3.1215104e+11 </wgt>
<wgt id='1517'> +3.1417805e+11 </wgt>
<wgt id='1518'> +3.1722054e+11 </wgt>
<wgt id='1519'> +3.1255162e+11 </wgt>
<wgt id='1520'> +3.1711883e+11 </wgt>
<wgt id='1521'> +3.1306398e+11 </wgt>
<wgt id='1522'> +3.1640285e+11 </wgt>
<wgt id='1523'> +3.1696128e+11 </wgt>
<wgt id='1524'> +3.1699985e+11 </wgt>
<wgt id='1525'> +3.1537915e+11 </wgt>
<wgt id='1526'> +3.1777162e+11 </wgt>
<wgt id='1527'> +3.1522986e+11 </wgt>
<wgt id='1528'> +3.1139718e+11 </wgt>
<wgt id='1529'> +3.1924212e+11 </wgt>
<wgt id='1530'> +3.0290102e+11 </wgt>
<wgt id='1531'> +3.2922736e+11 </wgt>
<wgt id='1532'> +3.3377396e+11 </wgt>
<wgt id='1533'> +3.2279310e+11 </wgt>
<wgt id='1534'> +3.2635434e+11 </wgt>
<wgt id='1535'> +3.3372996e+11 </wgt>
<wgt id='1536'> +3.2236575e+11 </wgt>
<wgt id='1537'> +3.3607392e+11 </wgt>
<wgt id='1538'> +3.2382515e+11 </wgt>
<wgt id='1539'> +3.3517787e+11 </wgt>
<wgt id='1540'> +3.3429639e+11 </wgt>
<wgt id='1541'> +3.3261493e+11 </wgt>
<wgt id='1542'> +3.3078186e+11 </wgt>
<wgt id='1543'> +3.3325236e+11 </wgt>
<wgt id='1544'> +3.2669543e+11 </wgt>
<wgt id='1545'> +3.2744620e+11 </wgt>
<wgt id='1546'> +3.2584448e+11 </wgt>
<wgt id='1547'> +3.3136090e+11 </wgt>
<wgt id='1548'> +3.2928873e+11 </wgt>
<wgt id='1549'> +3.2570523e+11 </wgt>
<wgt id='1550'> +3.3307493e+11 </wgt>
<wgt id='1551'> +3.3022520e+11 </wgt>
<wgt id='1552'> +3.3018575e+11 </wgt>
<wgt id='1553'> +3.4102205e+11 </wgt>
<wgt id='1554'> +3.3040382e+11 </wgt>
<wgt id='1555'> +3.2987915e+11 </wgt>
<wgt id='1556'> +3.3170207e+11 </wgt>
<wgt id='1557'> +3.2943452e+11 </wgt>
<wgt id='1558'> +3.2919955e+11 </wgt>
<wgt id='1559'> +3.2762866e+11 </wgt>
<wgt id='1560'> +3.2974085e+11 </wgt>
<wgt id='1561'> +3.2848414e+11 </wgt>
<wgt id='1562'> +3.2501951e+11 </wgt>
<wgt id='1563'> +3.2980056e+11 </wgt>
<wgt id='1564'> +3.2877314e+11 </wgt>
<wgt id='1565'> +3.3488997e+11 </wgt>
<wgt id='1566'> +3.2914185e+11 </wgt>
<wgt id='1567'> +3.2610045e+11 </wgt>
<wgt id='1568'> +3.2897498e+11 </wgt>
<wgt id='1569'> +3.2862190e+11 </wgt>
<wgt id='1570'> +3.3705881e+11 </wgt>
<wgt id='1571'> +3.2860372e+11 </wgt>
<wgt id='1572'> +3.2825062e+11 </wgt>
<wgt id='1573'> +3.3719977e+11 </wgt>
<wgt id='1574'> +2.3549995e+11 </wgt>
<wgt id='1575'> +2.3555788e+11 </wgt>
<wgt id='1576'> +2.3543016e+11 </wgt>
<wgt id='1577'> +2.3551703e+11 </wgt>
<wgt id='1578'> +2.3604255e+11 </wgt>
<wgt id='1579'> +2.3619044e+11 </wgt>
<wgt id='1580'> +2.3595060e+11 </wgt>
<wgt id='1581'> +2.3525875e+11 </wgt>
<wgt id='1582'> +2.3504181e+11 </wgt>
<wgt id='1583'> +2.3498789e+11 </wgt>
<wgt id='1584'> +2.3605182e+11 </wgt>
<wgt id='1585'> +2.3588846e+11 </wgt>
<wgt id='1586'> +2.3501361e+11 </wgt>
<wgt id='1587'> +2.3503450e+11 </wgt>
<wgt id='1588'> +2.3467005e+11 </wgt>
<wgt id='1589'> +2.3506441e+11 </wgt>
<wgt id='1590'> +2.3535456e+11 </wgt>
<wgt id='1591'> +2.3557772e+11 </wgt>
<wgt id='1592'> +2.3464124e+11 </wgt>
<wgt id='1593'> +2.3419182e+11 </wgt>
<wgt id='1594'> +2.3684015e+11 </wgt>
<wgt id='1595'> +2.3271805e+11 </wgt>
<wgt id='1596'> +2.4037490e+11 </wgt>
<wgt id='1597'> +2.3727710e+11 </wgt>
<wgt id='1598'> +2.3724428e+11 </wgt>
<wgt id='1599'> +2.3227121e+11 </wgt>
<wgt id='1600'> +2.4078916e+11 </wgt>
<wgt id='1601'> +2.3762075e+11 </wgt>
<wgt id='1602'> +2.3577248e+11 </wgt>
<wgt id='1603'> +2.5335250e+11 </wgt>
<wgt id='1604'> +2.3526400e+11 </wgt>
</rwgt>
</event>
<event>
 9      1 +2.8343000e+11 1.40000300e+03 7.81738600e-03 7.88880900e-02
       21 -1    0    0  504  503 +0.0000000000e+00 +0.0000000000e+00 +5.1065067436e+02 5.1065067436e+02 0.0000000000e+00 0.0000e+00 1.0000e+00
       21 -1    0    0  503  504 -0.0000000000e+00 -0.0000000000e+00 -9.5956482040e+02 9.5956482040e+02 0.0000000000e+00 0.0000e+00 1.0000e+00
       45  2    1    2    0    0 +0.0000000000e+00 +0.0000000000e+00 -4.4891414603e+02 1.4702154948e+03 1.4000034609e+03 0.0000e+00 0.0000e+00
       25  2    3    3    0    0 +1.6184665372e+02 +3.0281595061e+02 -8.5563263345e+02 9.3038903866e+02 1.2499888226e+02 0.0000e+00 0.0000e+00
       35  2    3    3    0    0 -1.6184665372e+02 -3.0281595061e+02 +4.0671848742e+02 5.3982645610e+02 9.0004641160e+01 0.0000e+00 0.0000e+00
        5  1    5    5  501    0 -1.3532317217e+02 -2.3651762814e+02 +3.6967788159e+02 4.5927382168e+02 4.2140000000e+00 0.0000e+00 -1.0000e+00
       -5  1    5    5    0  501 -2.6523481557e+01 -6.6298322467e+01 +3.7040605833e+01 8.0552634422e+01 4.2140000000e+00 0.0000e+00 -1.0000e+00
        5  1    4    4  502    0 +1.4554599675e+02 +1.4671136699e+02 -5.2996963573e+02 5.6885273575e+02 4.2140000000e+00 0.0000e+00 -1.0000e+00
       -5  1    4    4    0  502 +1.6300656975e+01 +1.5610458361e+02 -3.2566299773e+02 3.6153630292e+02 4.2140000000e+00 0.0000e+00 -1.0000e+00
<mgrwt>
<rscale>  0 0.14000035E+04</rscale>
<asrwt>0</asrwt>
<pdfrwt beam="1">  1       21 0.78561643E-01 0.14000035E+04</pdfrwt>
<pdfrwt beam="2">  1       21 0.14762536E+00 0.14000035E+04</pdfrwt>
<totfact> 0.33022255E+02</totfact>
</mgrwt>
<rwgt>
<wgt id='1001'> +2.8343000e+11 </wgt>
<wgt id='1002'> +3.1743405e+11 </wgt>
<wgt id='1003'> +3.1742402e+11 </wgt>
<wgt id='1004'> +3.5891248e+11 </wgt>
<wgt id='1005'> +2.8343000e+11 </wgt>
<wgt id='1006'> +2.8343000e+11 </wgt>
<wgt id='1007'> +3.1743405e+11 </wgt>
<wgt id='1008'> +3.1742402e+11 </wgt>
<wgt id='1009'> +3.5891248e+11 </wgt>
<wgt id='1010'> +2.8343000e+11 </wgt>
<wgt id='1011'> +2.8343000e+11 </wgt>
<wgt id='1012'> +3.1743405e+11 </wgt>
<wgt id='1013'> +3.1742402e+11 </wgt>
<wgt id='1014'> +3.5891248e+11 </wgt>
<wgt id='1015'> +2.8343000e+11 </wgt>
<wgt id='1016'> +2.5442898e+11 </wgt>
<wgt id='1017'> +2.8293815e+11 </wgt>
<wgt id='1018'> +2.8292980e+11 </wgt>
<wgt id='1019'> +3.1742402e+11 </wgt>
<wgt id='1020'> +2.5442898e+11 </wgt>
<wgt id='1021'> +2.5442898e+11 </wgt>
<wgt id='1022'> +2.8293815e+11 </wgt>
<wgt id='1023'> +2.8292980e+11 </wgt>
<wgt id='1024'> +3.1742402e+11 </wgt>
<wgt id='1025'> +2.5442898e+11 </wgt>
<wgt id='1026'> +2.5442898e+11 </wgt>
<wgt id='1027'> +2.8293815e+11 </wgt>
<wgt id='1028'> +2.8292980e+11 </wgt>
<wgt id='1029'> +3.1742402e+11 </wgt>
<wgt id='1030'> +2.5442898e+11 </wgt>
<wgt id='1031'> +3.1802447e+11 </wgt>
<wgt id='1032'> +3.5892464e+11 </wgt>
<wgt id='1033'> +3.5891248e+11 </wgt>
<wgt id='1034'> +4.0950140e+11 </wgt>
<wgt id='1035'> +3.1802447e+11 </wgt>
<wgt id='1036'> +3.1802447e+11 </wgt>
<wgt id='1037'> +3.5892464e+11 </wgt>
<wgt id='1038'> +3.5891248e+11 </wgt>
<wgt id='1039'> +4.0950140e+11 </wgt>
<wgt id='1040'> +3.1802447e+11 </wgt>
<wgt id='1041'> +3.1802447e+11 </wgt>
<wgt id='1042'> +3.5892464e+11 </wgt>
<wgt id='1043'> +3.5891248e+11 </wgt>
<wgt id='1044'> +4.0950140e+11 </wgt>
<wgt id='1045'> +3.1802447e+11 </wgt>
<wgt id='1046'> +2.8343000e+11 </wgt>
<wgt id='1047'> +2.8343000e+11 </wgt>
<wgt id='1048'> +2.8343000e+11 </wgt>
<wgt id='1049'> +2.8256003e+11 </wgt>
<wgt id='1050'> +2.8319062e+11 </wgt>
<wgt id='1051'> +2.8342453e+11 </wgt>
<wgt id='1052'> +2.8432424e+11 </wgt>
<wgt id='1053'> +2.8179521e+11 </wgt>
<wgt id='1054'> +2.8377742e+11 </wgt>
<wgt id='1055'> +2.8225481e+11 </wgt>
<wgt id='1056'> +2.8200679e+11 </wgt>
<wgt id='1057'> +2.8391643e+11 </wgt>
<wgt id='1058'> +2.8294947e+11 </wgt>
<wgt id='1059'> +2.8526296e+11 </wgt>
<wgt id='1060'> +2.8372914e+11 </wgt>
<wgt id='1061'> +2.8404786e+11 </wgt>
<wgt id='1062'> +2.8415289e+11 </wgt>
<wgt id='1063'> +2.8409195e+11 </wgt>
<wgt id='1064'> +2.8431549e+11 </wgt>
<wgt id='1065'> +2.8472668e+11 </wgt>
<wgt id='1066'> +2.8151022e+11 </wgt>
<wgt id='1067'> +2.8070180e+11 </wgt>
<wgt id='1068'> +2.8343233e+11 </wgt>
<wgt id='1069'> +2.8261399e+11 </wgt>
<wgt id='1070'> +2.8371468e+11 </wgt>
<wgt id='1071'> +2.8398443e+11 </wgt>
<wgt id='1072'> +2.8155059e+11 </wgt>
<wgt id='1073'> +2.8382542e+11 </wgt>
<wgt id='1074'> +2.8333295e+11 </wgt>
<wgt id='1075'> +2.8449619e+11 </wgt>
<wgt id='1076'> +2.8217921e+11 </wgt>
<wgt id='1077'> +2.8240285e+11 </wgt>
<wgt id='1078'> +2.8409279e+11 </wgt>
<wgt id='1079'> +2.8205431e+11 </wgt>
<wgt id='1080'> +2.8304235e+11 </wgt>
<wgt id='1081'> +2.8295366e+11 </wgt>
<wgt id='1082'> +2.8214224e+11 </wgt>
<wgt id='1083'> +2.8385305e+11 </wgt>
<wgt id='1084'> +2.8397658e+11 </wgt>
<wgt id='1085'> +2.8278799e+11 </wgt>
<wgt id='1086'> +2.8301399e+11 </wgt>
<wgt id='1087'> +2.8310424e+11 </wgt>
<wgt id='1088'> +2.8293440e+11 </wgt>
<wgt id='1089'> +2.8272850e+11 </wgt>
<wgt id='1090'> +2.8414182e+11 </wgt>
<wgt id='1091'> +2.8352211e+11 </wgt>
<wgt id='1092'> +2.8371165e+11 </wgt>
<wgt id='1093'> +2.8331685e+11 </wgt>
<wgt id='1094'> +2.8280354e+11 </wgt>
<wgt id='1095'> +2.8359481e+11 </wgt>
<wgt id='1096'> +2.8336481e+11 </wgt>
<wgt id='1097'> +2.8301882e+11 </wgt>
<wgt id='1098'> +2.8309558e+11 </wgt>
<wgt id='1099'> +2.8316004e+11 </wgt>
<wgt id='1100'> +2.8402002e+11 </wgt>
<wgt id='1101'> +2.8342335e+11 </wgt>
<wgt id='1102'> +2.8329251e+11 </wgt>
<wgt id='1103'> +2.8304814e+11 </wgt>
<wgt id='1104'> +2.8314641e+11 </wgt>
<wgt id='1105'> +2.8354423e+11 </wgt>
<wgt id='1106'> +2.8375112e+11 </wgt>
<wgt id='1107'> +2.8337672e+11 </wgt>
<wgt id='1108'> +2.8331484e+11 </wgt>
<wgt id='1109'> +2.8321764e+11 </wgt>
<wgt id='1110'> +2.8374109e+11 </wgt>
<wgt id='1111'> +2.8356339e+11 </wgt>
<wgt id='1112'> +2.8338710e+11 </wgt>
<wgt id='1113'> +2.8374508e+11 </wgt>
<wgt id='1114'> +2.8311217e+11 </wgt>
<wgt id='1115'> +2.8318398e+11 </wgt>
<wgt id='1116'> +2.8381610e+11 </wgt>
<wgt id='1117'> +2.8336716e+11 </wgt>
<wgt id='1118'> +2.8354931e+11 </wgt>
<wgt id='1119'> +2.8320679e+11 </wgt>
<wgt id='1120'> +2.8325162e+11 </wgt>
<wgt id='1121'> +2.8349260e+11 </wgt>
<wgt id='1122'> +2.8320263e+11 </wgt>
<wgt id='1123'> +2.8337517e+11 </wgt>
<wgt id='1124'> +2.8338365e+11 </wgt>
<wgt id='1125'> +2.8359478e+11 </wgt>
<wgt id='1126'> +2.8353999e+11 </wgt>
<wgt id='1127'> +2.8332168e+11 </wgt>
<wgt id='1128'> +2.8344595e+11 </wgt>
<wgt id='1129'> +2.8336217e+11 </wgt>
<wgt id='1130'> +2.8346775e+11 </wgt>
<wgt id='1131'> +2.8374988e+11 </wgt>
<wgt id='1132'> +2.8335030e+11 </wgt>
<wgt id='1133'> +2.8351459e+11 </wgt>
<wgt id='1134'> +2.8341296e+11 </wgt>
<wgt id='1135'> +2.8347074e+11 </wgt>
<wgt id='1136'> +2.8337783e+11 </wgt>
<wgt id='1137'> +2.8326880e+11 </wgt>
<wgt id='1138'> +2.8355392e+11 </wgt>
<wgt id='1139'> +2.8348258e+11 </wgt>
<wgt id='1140'> +2.8364068e+11 </wgt>
<wgt id='1141'> +2.8327364e+11 </wgt>
<wgt id='1142'> +2.8350410e+11 </wgt>
<wgt id='1143'> +2.8359799e+11 </wgt>
<wgt id='1144'> +2.8333962e+11 </wgt>
<wgt id='1145'> +2.8356380e+11 </wgt>
<wgt id='1146'> +2.8343213e+11 </wgt>
<wgt id='1147'> +2.8347982e+11 </wgt>
<wgt id='1148'> +2.8343000e+11 </wgt>
<wgt id='1149'> +2.8343000e+11 </wgt>
<wgt id='1150'> +2.9510575e+11 </wgt>
<wgt id='1151'> +2.7936864e+11 </wgt>
<wgt id='1152'> +2.8134936e+11 </wgt>
<wgt id='1153'> +2.8679088e+11 </wgt>
<wgt id='1154'> +2.8512936e+11 </wgt>
<wgt id='1155'> +2.9038764e+11 </wgt>
<wgt id='1156'> +2.7707948e+11 </wgt>
<wgt id='1157'> +2.7519941e+11 </wgt>
<wgt id='1158'> +2.7730333e+11 </wgt>
<wgt id='1159'> +2.9854472e+11 </wgt>
<wgt id='1160'> +2.8336667e+11 </wgt>
<wgt id='1161'> +2.8581887e+11 </wgt>
<wgt id='1162'> +2.8093398e+11 </wgt>
<wgt id='1163'> +2.8631890e+11 </wgt>
<wgt id='1164'> +2.7016775e+11 </wgt>
<wgt id='1165'> +2.7802450e+11 </wgt>
<wgt id='1166'> +2.8390058e+11 </wgt>
<wgt id='1167'> +2.7876483e+11 </wgt>
<wgt id='1168'> +2.7552528e+11 </wgt>
<wgt id='1169'> +2.7571134e+11 </wgt>
<wgt id='1170'> +2.8061080e+11 </wgt>
<wgt id='1171'> +2.7300017e+11 </wgt>
<wgt id='1172'> +2.7625979e+11 </wgt>
<wgt id='1173'> +2.8645437e+11 </wgt>
<wgt id='1174'> +2.7815323e+11 </wgt>
<wgt id='1175'> +2.7672540e+11 </wgt>
<wgt id='1176'> +2.8634569e+11 </wgt>
<wgt id='1177'> +2.7840580e+11 </wgt>
<wgt id='1178'> +2.8314140e+11 </wgt>
<wgt id='1179'> +2.8117435e+11 </wgt>
<wgt id='1180'> +2.8926844e+11 </wgt>
<wgt id='1181'> +2.8210112e+11 </wgt>
<wgt id='1182'> +2.8055531e+11 </wgt>
<wgt id='1183'> +2.9287160e+11 </wgt>
<wgt id='1184'> +2.8181573e+11 </wgt>
<wgt id='1185'> +2.8493524e+11 </wgt>
<wgt id='1186'> +2.7456875e+11 </wgt>
<wgt id='1187'> +2.8472446e+11 </wgt>
<wgt id='1188'> +2.8325873e+11 </wgt>
<wgt id='1189'> +2.8367025e+11 </wgt>
<wgt id='1190'> +2.8261127e+11 </wgt>
<wgt id='1191'> +2.9280492e+11 </wgt>
<wgt id='1192'> +2.9028306e+11 </wgt>
<wgt id='1193'> +2.9325789e+11 </wgt>
<wgt id='1194'> +2.8273762e+11 </wgt>
<wgt id='1195'> +2.8372222e+11 </wgt>
<wgt id='1196'> +2.9190749e+11 </wgt>
<wgt id='1197'> +2.9242126e+11 </wgt>
<wgt id='1198'> +2.7997368e+11 </wgt>
<wgt id='1199'> +2.8575116e+11 </wgt>
<wgt id='1200'> +2.8453656e+11 </wgt>
<wgt id='1201'> +2.7979015e+11 </wgt>
<wgt id='1202'> +2.8761219e+11 </wgt>
<wgt id='1203'> +2.7920922e+11 </wgt>
<wgt id='1204'> +2.8555797e+11 </wgt>
<wgt id='1205'> +2.8409197e+11 </wgt>
<wgt id='1206'> +2.7796385e+11 </wgt>
<wgt id='1207'> +2.9193585e+11 </wgt>
<wgt id='1208'> +2.7155241e+11 </wgt>
<wgt id='1209'> +2.8084179e+11 </wgt>
<wgt id='1210'> +2.8292357e+11 </wgt>
<wgt id='1211'> +2.8562280e+11 </wgt>
<wgt id='1212'> +2.8319782e+11 </wgt>
<wgt id='1213'> +2.9131236e+11 </wgt>
<wgt id='1214'> +2.7628363e+11 </wgt>
<wgt id='1215'> +2.8879208e+11 </wgt>
<wgt id='1216'> +2.8446733e+11 </wgt>
<wgt id='1217'> +2.7649465e+11 </wgt>
<wgt id='1218'> +2.8468152e+11 </wgt>
<wgt id='1219'> +2.9387938e+11 </wgt>
<wgt id='1220'> +2.7817154e+11 </wgt>
<wgt id='1221'> +2.7581879e+11 </wgt>
<wgt id='1222'> +2.7937733e+11 </wgt>
<wgt id='1223'> +2.7283247e+11 </wgt>
<wgt id='1224'> +2.8324182e+11 </wgt>
<wgt id='1225'> +2.8836177e+11 </wgt>
<wgt id='1226'> +2.8862297e+11 </wgt>
<wgt id='1227'> +2.7644743e+11 </wgt>
<wgt id='1228'> +2.8171170e+11 </wgt>
<wgt id='1229'> +3.0211954e+11 </wgt>
<wgt id='1230'> +2.9205789e+11 </wgt>
<wgt id='1231'> +2.7802450e+11 </wgt>
<wgt id='1232'> +2.8799623e+11 </wgt>
<wgt id='1233'> +2.7715401e+11 </wgt>
<wgt id='1234'> +2.7676031e+11 </wgt>
<wgt id='1235'> +3.0107614e+11 </wgt>
<wgt id='1236'> +2.7684937e+11 </wgt>
<wgt id='1237'> +2.8914150e+11 </wgt>
<wgt id='1238'> +2.8630268e+11 </wgt>
<wgt id='1239'> +2.8902618e+11 </wgt>
<wgt id='1240'> +2.8228176e+11 </wgt>
<wgt id='1241'> +2.8328057e+11 </wgt>
<wgt id='1242'> +2.8016678e+11 </wgt>
<wgt id='1243'> +2.8735698e+11 </wgt>
<wgt id='1244'> +2.8318941e+11 </wgt>
<wgt id='1245'> +2.8059927e+11 </wgt>
<wgt id='1246'> +3.0586671e+11 </wgt>
<wgt id='1247'> +2.8243670e+11 </wgt>
<wgt id='1248'> +2.7413997e+11 </wgt>
<wgt id='1249'> +2.7659258e+11 </wgt>
<wgt id='1250'> +2.9248856e+11 </wgt>
<wgt id='1251'> +2.9963844e+11 </wgt>
<wgt id='1252'> +2.8767719e+11 </wgt>
<wgt id='1253'> +2.8700652e+11 </wgt>
<wgt id='1254'> +2.8875141e+11 </wgt>
<wgt id='1255'> +2.9962161e+11 </wgt>
<wgt id='1256'> +2.9872042e+11 </wgt>
<wgt id='1257'> +2.9166794e+11 </wgt>
<wgt id='1258'> +2.9759357e+11 </wgt>
<wgt id='1259'> +2.9711641e+11 </wgt>
<wgt id='1260'> +3.2574281e+11 </wgt>
<wgt id='1261'> +3.1391302e+11 </wgt>
<wgt id='1262'> +2.9103782e+11 </wgt>
<wgt id='1263'> +2.9765339e+11 </wgt>
<wgt id='1264'> +3.0006286e+11 </wgt>
<wgt id='1265'> +2.9737849e+11 </wgt>
<wgt id='1266'> +2.9762538e+11 </wgt>
<wgt id='1267'> +3.2524898e+11 </wgt>
<wgt id='1268'> +2.9279674e+11 </wgt>
<wgt id='1269'> +2.8726543e+11 </wgt>
<wgt id='1270'> +2.9579859e+11 </wgt>
<wgt id='1271'> +2.7539489e+11 </wgt>
<wgt id='1272'> +2.9330242e+11 </wgt>
<wgt id='1273'> +2.9144790e+11 </wgt>
<wgt id='1274'> +2.8706214e+11 </wgt>
<wgt id='1275'> +2.9727002e+11 </wgt>
<wgt id='1276'> +2.9771605e+11 </wgt>
<wgt id='1277'> +2.9290947e+11 </wgt>
<wgt id='1278'> +2.9172340e+11 </wgt>
<wgt id='1279'> +2.8080806e+11 </wgt>
<wgt id='1280'> +2.9059589e+11 </wgt>
<wgt id='1281'> +2.8553900e+11 </wgt>
<wgt id='1282'> +2.9635645e+11 </wgt>
<wgt id='1283'> +3.0000606e+11 </wgt>
<wgt id='1284'> +3.1311995e+11 </wgt>
<wgt id='1285'> +3.0832565e+11 </wgt>
<wgt id='1286'> +3.2901921e+11 </wgt>
<wgt id='1287'> +3.0402885e+11 </wgt>
<wgt id='1288'> +3.2627243e+11 </wgt>
<wgt id='1289'> +3.1331002e+11 </wgt>
<wgt id='1290'> +3.1179284e+11 </wgt>
<wgt id='1291'> +2.7813937e+11 </wgt>
<wgt id='1292'> +2.9918569e+11 </wgt>
<wgt id='1293'> +3.0144713e+11 </wgt>
<wgt id='1294'> +3.1662495e+11 </wgt>
<wgt id='1295'> +3.0317993e+11 </wgt>
<wgt id='1296'> +3.1912575e+11 </wgt>
<wgt id='1297'> +2.9437977e+11 </wgt>
<wgt id='1298'> +2.8786039e+11 </wgt>
<wgt id='1299'> +3.0039984e+11 </wgt>
<wgt id='1300'> +2.8807800e+11 </wgt>
<wgt id='1301'> +2.7999764e+11 </wgt>
<wgt id='1302'> +2.7977961e+11 </wgt>
<wgt id='1303'> +2.9981298e+11 </wgt>
<wgt id='1304'> +3.1174313e+11 </wgt>
<wgt id='1305'> +2.9860145e+11 </wgt>
<wgt id='1306'> +3.0564728e+11 </wgt>
<wgt id='1307'> +2.9926922e+11 </wgt>
<wgt id='1308'> +3.2691922e+11 </wgt>
<wgt id='1309'> +2.9732654e+11 </wgt>
<wgt id='1310'> +3.0257671e+11 </wgt>
<wgt id='1311'> +3.0522455e+11 </wgt>
<wgt id='1312'> +3.0244230e+11 </wgt>
<wgt id='1313'> +2.9880641e+11 </wgt>
<wgt id='1314'> +3.0146270e+11 </wgt>
<wgt id='1315'> +2.8602772e+11 </wgt>
<wgt id='1316'> +2.9921160e+11 </wgt>
<wgt id='1317'> +3.0379929e+11 </wgt>
<wgt id='1318'> +2.8905647e+11 </wgt>
<wgt id='1319'> +3.0369132e+11 </wgt>
<wgt id='1320'> +3.1155800e+11 </wgt>
<wgt id='1321'> +2.9550157e+11 </wgt>
<wgt id='1322'> +2.9963047e+11 </wgt>
<wgt id='1323'> +2.9640350e+11 </wgt>
<wgt id='1324'> +3.0279365e+11 </wgt>
<wgt id='1325'> +3.1143295e+11 </wgt>
<wgt id='1326'> +3.0518146e+11 </wgt>
<wgt id='1327'> +2.9951418e+11 </wgt>
<wgt id='1328'> +3.0019705e+11 </wgt>
<wgt id='1329'> +2.9802912e+11 </wgt>
<wgt id='1330'> +2.8922099e+11 </wgt>
<wgt id='1331'> +3.2031376e+11 </wgt>
<wgt id='1332'> +2.8904579e+11 </wgt>
<wgt id='1333'> +3.0134815e+11 </wgt>
<wgt id='1334'> +3.1454697e+11 </wgt>
<wgt id='1335'> +2.9300232e+11 </wgt>
<wgt id='1336'> +3.0627352e+11 </wgt>
<wgt id='1337'> +3.0868652e+11 </wgt>
<wgt id='1338'> +2.8936779e+11 </wgt>
<wgt id='1339'> +3.1904302e+11 </wgt>
<wgt id='1340'> +3.0290670e+11 </wgt>
<wgt id='1341'> +3.0936448e+11 </wgt>
<wgt id='1342'> +3.1185771e+11 </wgt>
<wgt id='1343'> +3.0983958e+11 </wgt>
<wgt id='1344'> +3.0792383e+11 </wgt>
<wgt id='1345'> +2.7556399e+11 </wgt>
<wgt id='1346'> +3.0106860e+11 </wgt>
<wgt id='1347'> +2.8836859e+11 </wgt>
<wgt id='1348'> +2.8887447e+11 </wgt>
<wgt id='1349'> +2.8858089e+11 </wgt>
<wgt id='1350'> +3.0261940e+11 </wgt>
<wgt id='1351'> +2.9521626e+11 </wgt>
<wgt id='1352'> +3.0157328e+11 </wgt>
<wgt id='1353'> +2.9821894e+11 </wgt>
<wgt id='1354'> +3.0766822e+11 </wgt>
<wgt id='1355'> +2.7541254e+11 </wgt>
<wgt id='1356'> +2.7812482e+11 </wgt>
<wgt id='1357'> +2.7597734e+11 </wgt>
<wgt id='1358'> +2.7312631e+11 </wgt>
<wgt id='1359'> +2.7583236e+11 </wgt>
<wgt id='1360'> +2.6932699e+11 </wgt>
<wgt id='1361'> +2.7505170e+11 </wgt>
<wgt id='1362'> +2.7908392e+11 </wgt>
<wgt id='1363'> +2.7037855e+11 </wgt>
<wgt id='1364'> +2.8092875e+11 </wgt>
<wgt id='1365'> +2.7314948e+11 </wgt>
<wgt id='1366'> +2.7418281e+11 </wgt>
<wgt id='1367'> +2.7607455e+11 </wgt>
<wgt id='1368'> +2.7558646e+11 </wgt>
<wgt id='1369'> +2.7889709e+11 </wgt>
<wgt id='1370'> +2.7347569e+11 </wgt>
<wgt id='1371'> +2.7428951e+11 </wgt>
<wgt id='1372'> +2.7915911e+11 </wgt>
<wgt id='1373'> +2.7881830e+11 </wgt>
<wgt id='1374'> +2.6741801e+11 </wgt>
<wgt id='1375'> +2.7507070e+11 </wgt>
<wgt id='1376'> +2.7567885e+11 </wgt>
<wgt id='1377'> +2.7573947e+11 </wgt>
<wgt id='1378'> +2.7240486e+11 </wgt>
<wgt id='1379'> +2.7389090e+11 </wgt>
<wgt id='1380'> +2.7344368e+11 </wgt>
<wgt id='1381'> +2.8055122e+11 </wgt>
<wgt id='1382'> +2.7484593e+11 </wgt>
<wgt id='1383'> +2.7457727e+11 </wgt>
<wgt id='1384'> +2.7317781e+11 </wgt>
<wgt id='1385'> +2.7303304e+11 </wgt>
<wgt id='1386'> +2.7627633e+11 </wgt>
<wgt id='1387'> +2.7412949e+11 </wgt>
<wgt id='1388'> +2.7128337e+11 </wgt>
<wgt id='1389'> +2.7411605e+11 </wgt>
<wgt id='1390'> +2.7543230e+11 </wgt>
<wgt id='1391'> +2.7324368e+11 </wgt>
<wgt id='1392'> +2.7309308e+11 </wgt>
<wgt id='1393'> +2.7424575e+11 </wgt>
<wgt id='1394'> +2.7339643e+11 </wgt>
<wgt id='1395'> +2.7095718e+11 </wgt>
<wgt id='1396'> +2.7622674e+11 </wgt>
<wgt id='1397'> +2.7615301e+11 </wgt>
<wgt id='1398'> +2.7651745e+11 </wgt>
<wgt id='1399'> +2.7174255e+11 </wgt>
<wgt id='1400'> +2.7190451e+11 </wgt>
<wgt id='1401'> +2.7473562e+11 </wgt>
<wgt id='1402'> +2.7846175e+11 </wgt>
<wgt id='1403'> +2.7978677e+11 </wgt>
<wgt id='1404'> +2.7476866e+11 </wgt>
<wgt id='1405'> +2.8157159e+11 </wgt>
<wgt id='1406'> +2.7590657e+11 </wgt>
<wgt id='1407'> +2.7589209e+11 </wgt>
<wgt id='1408'> +2.7925145e+11 </wgt>
<wgt id='1409'> +2.7269373e+11 </wgt>
<wgt id='1410'> +2.7135593e+11 </wgt>
<wgt id='1411'> +2.7511826e+11 </wgt>
<wgt id='1412'> +2.7385774e+11 </wgt>
<wgt id='1413'> +2.7286559e+11 </wgt>
<wgt id='1414'> +2.7752117e+11 </wgt>
<wgt id='1415'> +2.8011556e+11 </wgt>
<wgt id='1416'> +2.7817283e+11 </wgt>
<wgt id='1417'> +2.6993966e+11 </wgt>
<wgt id='1418'> +2.7644750e+11 </wgt>
<wgt id='1419'> +2.7912322e+11 </wgt>
<wgt id='1420'> +2.7422497e+11 </wgt>
<wgt id='1421'> +2.8148167e+11 </wgt>
<wgt id='1422'> +2.6826155e+11 </wgt>
<wgt id='1423'> +2.8048713e+11 </wgt>
<wgt id='1424'> +2.7657052e+11 </wgt>
<wgt id='1425'> +2.7586360e+11 </wgt>
<wgt id='1426'> +2.7831203e+11 </wgt>
<wgt id='1427'> +2.7518600e+11 </wgt>
<wgt id='1428'> +2.7505237e+11 </wgt>
<wgt id='1429'> +2.7280860e+11 </wgt>
<wgt id='1430'> +2.7104976e+11 </wgt>
<wgt id='1431'> +2.7044498e+11 </wgt>
<wgt id='1432'> +2.7629506e+11 </wgt>
<wgt id='1433'> +2.7503543e+11 </wgt>
<wgt id='1434'> +2.8256380e+11 </wgt>
<wgt id='1435'> +2.7442594e+11 </wgt>
<wgt id='1436'> +2.7927684e+11 </wgt>
<wgt id='1437'> +2.7704472e+11 </wgt>
<wgt id='1438'> +2.7397782e+11 </wgt>
<wgt id='1439'> +2.7737422e+11 </wgt>
<wgt id='1440'> +2.7920622e+11 </wgt>
<wgt id='1441'> +2.7430338e+11 </wgt>
<wgt id='1442'> +2.8193556e+11 </wgt>
<wgt id='1443'> +2.7335719e+11 </wgt>
<wgt id='1444'> +2.7522977e+11 </wgt>
<wgt id='1445'> +2.7758415e+11 </wgt>
<wgt id='1446'> +2.7890967e+11 </wgt>
<wgt id='1447'> +2.7207745e+11 </wgt>
<wgt id='1448'> +2.7780527e+11 </wgt>
<wgt id='1449'> +2.7743329e+11 </wgt>
<wgt id='1450'> +2.7407592e+11 </wgt>
<wgt id='1451'> +2.7679172e+11 </wgt>
<wgt id='1452'> +2.7810214e+11 </wgt>
<wgt id='1453'> +2.7886864e+11 </wgt>
<wgt id='1454'> +2.6832660e+11 </wgt>
<wgt id='1455'> +2.7449724e+11 </wgt>
<wgt id='1456'> +2.7455988e+11 </wgt>
<wgt id='1457'> +2.7427530e+11 </wgt>
<wgt id='1458'> +2.7826692e+11 </wgt>
<wgt id='1459'> +3.0630546e+11 </wgt>
<wgt id='1460'> +3.0155249e+11 </wgt>
<wgt id='1461'> +3.5139456e+11 </wgt>
<wgt id='1462'> +2.9873938e+11 </wgt>
<wgt id='1463'> +2.9898097e+11 </wgt>
<wgt id='1464'> +2.9842953e+11 </wgt>
<wgt id='1465'> +2.9880203e+11 </wgt>
<wgt id='1466'> +2.9868212e+11 </wgt>
<wgt id='1467'> +2.9888960e+11 </wgt>
<wgt id='1468'> +2.9849289e+11 </wgt>
<wgt id='1469'> +2.9829558e+11 </wgt>
<wgt id='1470'> +2.9909982e+11 </wgt>
<wgt id='1471'> +2.9920847e+11 </wgt>
<wgt id='1472'> +2.9825622e+11 </wgt>
<wgt id='1473'> +2.9989679e+11 </wgt>
<wgt id='1474'> +2.9762771e+11 </wgt>
<wgt id='1475'> +2.9984156e+11 </wgt>
<wgt id='1476'> +2.9795797e+11 </wgt>
<wgt id='1477'> +2.9817468e+11 </wgt>
<wgt id='1478'> +3.0005852e+11 </wgt>
<wgt id='1479'> +2.9822271e+11 </wgt>
<wgt id='1480'> +2.9910109e+11 </wgt>
<wgt id='1481'> +2.9829738e+11 </wgt>
<wgt id='1482'> +2.9933576e+11 </wgt>
<wgt id='1483'> +2.9883055e+11 </wgt>
<wgt id='1484'> +2.9861033e+11 </wgt>
<wgt id='1485'> +2.9894363e+11 </wgt>
<wgt id='1486'> +2.9824752e+11 </wgt>
<wgt id='1487'> +2.9899765e+11 </wgt>
<wgt id='1488'> +2.9841543e+11 </wgt>
<wgt id='1489'> +2.9838431e+11 </wgt>
<wgt id='1490'> +2.9970202e+11 </wgt>
<wgt id='1491'> +3.0365564e+11 </wgt>
<wgt id='1492'> +2.9599654e+11 </wgt>
<wgt id='1493'> +2.9522021e+11 </wgt>
<wgt id='1494'> +3.0977107e+11 </wgt>
<wgt id='1495'> +2.9807089e+11 </wgt>
<wgt id='1496'> +2.9945657e+11 </wgt>
<wgt id='1497'> +2.9893781e+11 </wgt>
<wgt id='1498'> +2.9846814e+11 </wgt>
<wgt id='1499'> +3.0063760e+11 </wgt>
<wgt id='1500'> +2.9770129e+11 </wgt>
<wgt id='1501'> +2.9918745e+11 </wgt>
<wgt id='1502'> +2.9755229e+11 </wgt>
<wgt id='1503'> +2.9545158e+11 </wgt>
<wgt id='1504'> +3.0226400e+11 </wgt>
<wgt id='1505'> +2.9970217e+11 </wgt>
<wgt id='1506'> +2.9780918e+11 </wgt>
<wgt id='1507'> +3.0037994e+11 </wgt>
<wgt id='1508'> +2.9723772e+11 </wgt>
<wgt id='1509'> +2.9934654e+11 </wgt>
<wgt id='1510'> +2.9613149e+11 </wgt>
<wgt id='1511'> +2.9987304e+11 </wgt>
<wgt id='1512'> +2.9840650e+11 </wgt>
<wgt id='1513'> +2.9865062e+11 </wgt>
<wgt id='1514'> +2.9882995e+11 </wgt>
<wgt id='1515'> +3.0135255e+11 </wgt>
<wgt id='1516'> +2.9905684e+11 </wgt>
<wgt id='1517'> +2.9834514e+11 </wgt>
<wgt id='1518'> +2.9910583e+11 </wgt>
<wgt id='1519'> +2.9705373e+11 </wgt>
<wgt id='1520'> +2.9993797e+11 </wgt>
<wgt id='1521'> +2.9789843e+11 </wgt>
<wgt id='1522'> +2.9923664e+11 </wgt>
<wgt id='1523'> +3.0005524e+11 </wgt>
<wgt id='1524'> +3.0015001e+11 </wgt>
<wgt id='1525'> +2.9988257e+11 </wgt>
<wgt id='1526'> +2.9963630e+11 </wgt>
<wgt id='1527'> +2.9873938e+11 </wgt>
<wgt id='1528'> +2.9841621e+11 </wgt>
<wgt id='1529'> +2.9857442e+11 </wgt>
<wgt id='1530'> +2.9484299e+11 </wgt>
<wgt id='1531'> +2.9642544e+11 </wgt>
<wgt id='1532'> +2.9409835e+11 </wgt>
<wgt id='1533'> +2.9174486e+11 </wgt>
<wgt id='1534'> +2.9483331e+11 </wgt>
<wgt id='1535'> +2.9881662e+11 </wgt>
<wgt id='1536'> +2.9389979e+11 </wgt>
<wgt id='1537'> +2.9639661e+11 </wgt>
<wgt id='1538'> +2.9327040e+11 </wgt>
<wgt id='1539'> +3.0231867e+11 </wgt>
<wgt id='1540'> +2.9583564e+11 </wgt>
<wgt id='1541'> +2.9703867e+11 </wgt>
<wgt id='1542'> +2.9641325e+11 </wgt>
<wgt id='1543'> +2.9767408e+11 </wgt>
<wgt id='1544'> +2.9451704e+11 </wgt>
<wgt id='1545'> +2.9443288e+11 </wgt>
<wgt id='1546'> +2.9248299e+11 </wgt>
<wgt id='1547'> +2.9873841e+11 </wgt>
<wgt id='1548'> +2.9453878e+11 </wgt>
<wgt id='1549'> +2.9294216e+11 </wgt>
<wgt id='1550'> +2.9734802e+11 </wgt>
<wgt id='1551'> +2.9701069e+11 </wgt>
<wgt id='1552'> +2.9590751e+11 </wgt>
<wgt id='1553'> +2.9865771e+11 </wgt>
<wgt id='1554'> +2.9631368e+11 </wgt>
<wgt id='1555'> +2.9709832e+11 </wgt>
<wgt id='1556'> +2.9881849e+11 </wgt>
<wgt id='1557'> +2.9529367e+11 </wgt>
<wgt id='1558'> +2.9650739e+11 </wgt>
<wgt id='1559'> +2.9425491e+11 </wgt>
<wgt id='1560'> +2.9516520e+11 </wgt>
<wgt id='1561'> +2.9297827e+11 </wgt>
<wgt id='1562'> +2.9507206e+11 </wgt>
<wgt id='1563'> +2.9645933e+11 </wgt>
<wgt id='1564'> +2.9598619e+11 </wgt>
<wgt id='1565'> +2.9851026e+11 </wgt>
<wgt id='1566'> +2.9639419e+11 </wgt>
<wgt id='1567'> +2.9977985e+11 </wgt>
<wgt id='1568'> +2.9635267e+11 </wgt>
<wgt id='1569'> +2.9605046e+11 </wgt>
<wgt id='1570'> +3.0335427e+11 </wgt>
<wgt id='1571'> +2.9628174e+11 </wgt>
<wgt id='1572'> +2.9843655e+11 </wgt>
<wgt id='1573'> +2.9972882e+11 </wgt>
<wgt id='1574'> +2.6563366e+11 </wgt>
<wgt id='1575'> +2.6570558e+11 </wgt>
<wgt id='1576'> +2.6556571e+11 </wgt>
<wgt id='1577'> +2.6565200e+11 </wgt>
<wgt id='1578'> +2.6624399e+11 </wgt>
<wgt id='1579'> +2.6648604e+11 </wgt>
<wgt id='1580'> +2.6625839e+11 </wgt>
<wgt id='1581'> +2.6503070e+11 </wgt>
<wgt id='1582'> +2.6473046e+11 </wgt>
<wgt id='1583'> +2.6518022e+11 </wgt>
<wgt id='1584'> +2.6621477e+11 </wgt>
<wgt id='1585'> +2.6583248e+11 </wgt>
<wgt id='1586'> +2.6464761e+11 </wgt>
<wgt id='1587'> +2.6488638e+11 </wgt>
<wgt id='1588'> +2.6439281e+11 </wgt>
<wgt id='1589'> +2.6536714e+11 </wgt>
<wgt id='1590'> +2.6545551e+11 </wgt>
<wgt id='1591'> +2.6570399e+11 </wgt>
<wgt id='1592'> +2.6460836e+11 </wgt>
<wgt id='1593'> +2.6472441e+11 </wgt>
<wgt id='1594'> +2.6649235e+11 </wgt>
<wgt id='1595'> +2.6333944e+11 </wgt>
<wgt id='1596'> +2.6934247e+11 </wgt>
<wgt id='1597'> +2.6738829e+11 </wgt>
<wgt id='1598'> +2.6759328e+11 </wgt>
<wgt id='1599'> +2.6283777e+11 </wgt>
<wgt id='1600'> +2.7014504e+11 </wgt>
<wgt id='1601'> +2.6777409e+11 </wgt>
<wgt id='1602'> +2.6568525e+11 </wgt>
<wgt id='1603'> +2.7678780e+11 </wgt>
<wgt id='1604'> +2.6562472e+11 </wgt>
</rwgt>
</event>
<event>
 9      1 +2.8343000e+11 1.40000000e+03 7.81738600e-03 7.88881100e-02
       21 -1    0    0  504  503 +0.0000000000e+00 +0.0000000000e+00 +1.0081997500e+03 1.0081997500e+03 0.0000000000e+00 0.0000e+00 -1.0000e+00
       21 -1    0    0  503  504 -0.0000000000e+00 -0.0000000000e+00 -4.8601494853e+02 4.8601494853e+02 0.0000000000e+00 0.0000e+00 -1.0000e+00
       45  2    1    2    0    0 +0.0000000000e+00 +1.1368683772e-13 +5.2218480142e+02 1.4942146985e+03 1.4000002137e+03 0.0000e+00 0.0000e+00
       25  2    3    3    0    0 +9.1428170315e+01 +6.6813177360e+02 +4.2530867579e+02 8.0701452117e+02 1.2500316174e+02 0.0000e+00 0.0000e+00
       35  2    3    3    0    0 -9.1428170315e+01 -6.6813177360e+02 +9.6876125632e+01 6.8720017732e+02 8.9999570933e+01 0.0000e+00 0.0000e+00
        5  1    5    5  501    0 +6.6652515525e+00 -2.0680566107e+02 +7.1274407743e+00 2.0707864505e+02 4.2140000000e+00 0.0000e+00 1.0000e+00
       -5  1    5    5    0  501 -9.8093421868e+01 -4.6132611253e+02 +8.9748684857e+01 4.8012153227e+02 4.2140000000e+00 0.0000e+00 1.0000e+00
        5  1    4    4  502    0 +1.1698764035e+01 +6.5949923224e+01 +2.9813312053e+00 6.7178118350e+01 4.2140000000e+00 0.0000e+00 -1.0000e+00
       -5  1    4    4    0  502 +7.9729406280e+01 +6.0218185038e+02 +4.2232734459e+02 7.3983640282e+02 4.2140000000e+00 0.0000e+00 -1.0000e+00
<mgrwt>
<rscale>  0 0.14000002E+04</rscale>
<asrwt>0</asrwt>
<pdfrwt beam="1">  1       21 0.15510765E+00 0.14000002E+04</pdfrwt>
<pdfrwt beam="2">  1       21 0.74771531E-01 0.14000002E+04</pdfrwt>
<totfact> 0.32038533E+02</totfact>
</mgrwt>
<rwgt>
<wgt id='1001'> +2.8343000e+11 </wgt>
<wgt id='1002'> +2.8498638e+11 </wgt>
<wgt id='1003'> +2.8498618e+11 </wgt>
<wgt id='1004'> +3.2003641e+11 </wgt>
<wgt id='1005'> +2.8343000e+11 </wgt>
<wgt id='1006'> +2.8343000e+11 </wgt>
<wgt id='1007'> +2.8498638e+11 </wgt>
<wgt id='1008'> +2.8498618e+11 </wgt>
<wgt id='1009'> +3.2003641e+11 </wgt>
<wgt id='1010'> +2.8343000e+11 </wgt>
<wgt id='1011'> +2.8343000e+11 </wgt>
<wgt id='1012'> +2.8498638e+11 </wgt>
<wgt id='1013'> +2.8498618e+11 </wgt>
<wgt id='1014'> +3.2003641e+11 </wgt>
<wgt id='1015'> +2.8343000e+11 </wgt>
<wgt id='1016'> +2.5432344e+11 </wgt>
<wgt id='1017'> +2.5564009e+11 </wgt>
<wgt id='1018'> +2.5563993e+11 </wgt>
<wgt id='1019'> +2.8498618e+11 </wgt>
<wgt id='1020'> +2.5432344e+11 </wgt>
<wgt id='1021'> +2.5432344e+11 </wgt>
<wgt id='1022'> +2.5564009e+11 </wgt>
<wgt id='1023'> +2.5563993e+11 </wgt>
<wgt id='1024'> +2.8498618e+11 </wgt>
<wgt id='1025'> +2.5432344e+11 </wgt>
<wgt id='1026'> +2.5432344e+11 </wgt>
<wgt id='1027'> +2.5564009e+11 </wgt>
<wgt id='1028'> +2.5563993e+11 </wgt>
<wgt id='1029'> +2.8498618e+11 </wgt>
<wgt id='1030'> +2.5432344e+11 </wgt>
<wgt id='1031'> +3.1816665e+11 </wgt>
<wgt id='1032'> +3.2003664e+11 </wgt>
<wgt id='1033'> +3.2003641e+11 </wgt>
<wgt id='1034'> +3.6224591e+11 </wgt>
<wgt id='1035'> +3.1816665e+11 </wgt>
<wgt id='1036'> +3.1816665e+11 </wgt>
<wgt id='1037'> +3.2003664e+11 </wgt>
<wgt id='1038'> +3.2003641e+11 </wgt>
<wgt id='1039'> +3.6224591e+11 </wgt>
<wgt id='1040'> +3.1816665e+11 </wgt>
<wgt id='1041'> +3.1816665e+11 </wgt>
<wgt id='1042'> +3.2003664e+11 </wgt>
<wgt id='1043'> +3.2003641e+11 </wgt>
<wgt id='1044'> +3.6224591e+11 </wgt>
<wgt id='1045'> +3.1816665e+11 </wgt>
<wgt id='1046'> +2.8343000e+11 </wgt>
<wgt id='1047'> +2.8343000e+11 </wgt>
<wgt id='1048'> +2.8343000e+11 </wgt>
<wgt id='1049'> +2.8263545e+11 </wgt>
<wgt id='1050'> +2.8321915e+11 </wgt>
<wgt id='1051'> +2.8336026e+11 </wgt>
<wgt id='1052'> +2.8434262e+11 </wgt>
<wgt id='1053'> +2.8175971e+11 </wgt>
<wgt id='1054'> +2.8375076e+11 </wgt>
<wgt id='1055'> +2.8224798e+11 </wgt>
<wgt id='1056'> +2.8204294e+11 </wgt>
<wgt id='1057'> +2.8381860e+11 </wgt>
<wgt id='1058'> +2.8291543e+11 </wgt>
<wgt id='1059'> +2.8523224e+11 </wgt>
<wgt id='1060'> +2.8375426e+11 </wgt>
<wgt id='1061'> +2.8401337e+11 </wgt>
<wgt id='1062'> +2.8419004e+11 </wgt>
<wgt id='1063'> +2.8421218e+11 </wgt>
<wgt id='1064'> +2.8422530e+11 </wgt>
<wgt id='1065'> +2.8470003e+11 </wgt>
<wgt id='1066'> +2.8141710e+11 </wgt>
<wgt id='1067'> +2.8096583e+11 </wgt>
<wgt id='1068'> +2.8336043e+11 </wgt>
<wgt id='1069'> +2.8259025e+11 </wgt>
<wgt id='1070'> +2.8378609e+11 </wgt>
<wgt id='1071'> +2.8374361e+11 </wgt>
<wgt id='1072'> +2.8172224e+11 </wgt>
<wgt id='1073'> +2.8370559e+11 </wgt>
<wgt id='1074'> +2.8333946e+11 </wgt>
<wgt id='1075'> +2.8449790e+11 </wgt>
<wgt id='1076'> +2.8194583e+11 </wgt>
<wgt id='1077'> +2.8227530e+11 </wgt>
<wgt id='1078'> +2.8409005e+11 </wgt>
<wgt id='1079'> +2.8210824e+11 </wgt>
<wgt id='1080'> +2.8310483e+11 </wgt>
<wgt id='1081'> +2.8294513e+11 </wgt>
<wgt id='1082'> +2.8216870e+11 </wgt>
<wgt id='1083'> +2.8383462e+11 </wgt>
<wgt id='1084'> +2.8394822e+11 </wgt>
<wgt id='1085'> +2.8276587e+11 </wgt>
<wgt id='1086'> +2.8305986e+11 </wgt>
<wgt id='1087'> +2.8311561e+11 </wgt>
<wgt id='1088'> +2.8293103e+11 </wgt>
<wgt id='1089'> +2.8269480e+11 </wgt>
<wgt id='1090'> +2.8413474e+11 </wgt>
<wgt id='1091'> +2.8352054e+11 </wgt>
<wgt id='1092'> +2.8373905e+11 </wgt>
<wgt id='1093'> +2.8333067e+11 </wgt>
<wgt id='1094'> +2.8277481e+11 </wgt>
<wgt id='1095'> +2.8360963e+11 </wgt>
<wgt id='1096'> +2.8338421e+11 </wgt>
<wgt id='1097'> +2.8301266e+11 </wgt>
<wgt id='1098'> +2.8309684e+11 </wgt>
<wgt id='1099'> +2.8315834e+11 </wgt>
<wgt id='1100'> +2.8402981e+11 </wgt>
<wgt id='1101'> +2.8343910e+11 </wgt>
<wgt id='1102'> +2.8330164e+11 </wgt>
<wgt id='1103'> +2.8301156e+11 </wgt>
<wgt id='1104'> +2.8316105e+11 </wgt>
<wgt id='1105'> +2.8353971e+11 </wgt>
<wgt id='1106'> +2.8375675e+11 </wgt>
<wgt id='1107'> +2.8340871e+11 </wgt>
<wgt id='1108'> +2.8329907e+11 </wgt>
<wgt id='1109'> +2.8321827e+11 </wgt>
<wgt id='1110'> +2.8373552e+11 </wgt>
<wgt id='1111'> +2.8356715e+11 </wgt>
<wgt id='1112'> +2.8338502e+11 </wgt>
<wgt id='1113'> +2.8374933e+11 </wgt>
<wgt id='1114'> +2.8311522e+11 </wgt>
<wgt id='1115'> +2.8316562e+11 </wgt>
<wgt id='1116'> +2.8384474e+11 </wgt>
<wgt id='1117'> +2.8336445e+11 </wgt>
<wgt id='1118'> +2.8357044e+11 </wgt>
<wgt id='1119'> +2.8318775e+11 </wgt>
<wgt id='1120'> +2.8323768e+11 </wgt>
<wgt id='1121'> +2.8350158e+11 </wgt>
<wgt id='1122'> +2.8319236e+11 </wgt>
<wgt id='1123'> +2.8337313e+11 </wgt>
<wgt id='1124'> +2.8338989e+11 </wgt>
<wgt id='1125'> +2.8359906e+11 </wgt>
<wgt id='1126'> +2.8354072e+11 </wgt>
<wgt id='1127'> +2.8331513e+11 </wgt>
<wgt id='1128'> +2.8344100e+11 </wgt>
<wgt id='1129'> +2.8335378e+11 </wgt>
<wgt id='1130'> +2.8346821e+11 </wgt>
<wgt id='1131'> +2.8377104e+11 </wgt>
<wgt id='1132'> +2.8334966e+11 </wgt>
<wgt id='1133'> +2.8352304e+11 </wgt>
<wgt id='1134'> +2.8341793e+11 </wgt>
<wgt id='1135'> +2.8346839e+11 </wgt>
<wgt id='1136'> +2.8337230e+11 </wgt>
<wgt id='1137'> +2.8326386e+11 </wgt>
<wgt id='1138'> +2.8355623e+11 </wgt>
<wgt id='1139'> +2.8348587e+11 </wgt>
<wgt id='1140'> +2.8364884e+11 </wgt>
<wgt id='1141'> +2.8326494e+11 </wgt>
<wgt id='1142'> +2.8350045e+11 </wgt>
<wgt id='1143'> +2.8359847e+11 </wgt>
<wgt id='1144'> +2.8333582e+11 </wgt>
<wgt id='1145'> +2.8356557e+11 </wgt>
<wgt id='1146'> +2.8344018e+11 </wgt>
<wgt id='1147'> +2.8348081e+11 </wgt>
<wgt id='1148'> +2.8343000e+11 </wgt>
<wgt id='1149'> +2.8343000e+11 </wgt>
<wgt id='1150'> +2.9591068e+11 </wgt>
<wgt id='1151'> +2.7882287e+11 </wgt>
<wgt id='1152'> +2.8020000e+11 </wgt>
<wgt id='1153'> +2.8654921e+11 </wgt>
<wgt id='1154'> +2.8442069e+11 </wgt>
<wgt id='1155'> +2.9104066e+11 </wgt>
<wgt id='1156'> +2.7721669e+11 </wgt>
<wgt id='1157'> +2.7490287e+11 </wgt>
<wgt id='1158'> +2.7720595e+11 </wgt>
<wgt id='1159'> +2.9921132e+11 </wgt>
<wgt id='1160'> +2.8386335e+11 </wgt>
<wgt id='1161'> +2.8616126e+11 </wgt>
<wgt id='1162'> +2.8205006e+11 </wgt>
<wgt id='1163'> +2.8625970e+11 </wgt>
<wgt id='1164'> +2.7098763e+11 </wgt>
<wgt id='1165'> +2.7780537e+11 </wgt>
<wgt id='1166'> +2.8364310e+11 </wgt>
<wgt id='1167'> +2.7849406e+11 </wgt>
<wgt id='1168'> +2.7523214e+11 </wgt>
<wgt id='1169'> +2.7569557e+11 </wgt>
<wgt id='1170'> +2.8173864e+11 </wgt>
<wgt id='1171'> +2.7292536e+11 </wgt>
<wgt id='1172'> +2.7587657e+11 </wgt>
<wgt id='1173'> +2.8611567e+11 </wgt>
<wgt id='1174'> +2.7776620e+11 </wgt>
<wgt id='1175'> +2.7714092e+11 </wgt>
<wgt id='1176'> +2.8638983e+11 </wgt>
<wgt id='1177'> +2.7822447e+11 </wgt>
<wgt id='1178'> +2.8325786e+11 </wgt>
<wgt id='1179'> +2.8158981e+11 </wgt>
<wgt id='1180'> +2.9019537e+11 </wgt>
<wgt id='1181'> +2.8367567e+11 </wgt>
<wgt id='1182'> +2.8033024e+11 </wgt>
<wgt id='1183'> +2.9206729e+11 </wgt>
<wgt id='1184'> +2.8263341e+11 </wgt>
<wgt id='1185'> +2.8574597e+11 </wgt>
<wgt id='1186'> +2.7531521e+11 </wgt>
<wgt id='1187'> +2.8451226e+11 </wgt>
<wgt id='1188'> +2.8455536e+11 </wgt>
<wgt id='1189'> +2.8316012e+11 </wgt>
<wgt id='1190'> +2.8215227e+11 </wgt>
<wgt id='1191'> +2.9217269e+11 </wgt>
<wgt id='1192'> +2.8984469e+11 </wgt>
<wgt id='1193'> +2.9263673e+11 </wgt>
<wgt id='1194'> +2.8215424e+11 </wgt>
<wgt id='1195'> +2.8385126e+11 </wgt>
<wgt id='1196'> +2.9180007e+11 </wgt>
<wgt id='1197'> +2.9200902e+11 </wgt>
<wgt id='1198'> +2.8130909e+11 </wgt>
<wgt id='1199'> +2.8657895e+11 </wgt>
<wgt id='1200'> +2.8527627e+11 </wgt>
<wgt id='1201'> +2.7999255e+11 </wgt>
<wgt id='1202'> +2.8729044e+11 </wgt>
<wgt id='1203'> +2.7977622e+11 </wgt>
<wgt id='1204'> +2.8475080e+11 </wgt>
<wgt id='1205'> +2.8390475e+11 </wgt>
<wgt id='1206'> +2.7842782e+11 </wgt>
<wgt id='1207'> +2.9166432e+11 </wgt>
<wgt id='1208'> +2.7122534e+11 </wgt>
<wgt id='1209'> +2.8150854e+11 </wgt>
<wgt id='1210'> +2.8377737e+11 </wgt>
<wgt id='1211'> +2.8541457e+11 </wgt>
<wgt id='1212'> +2.8313813e+11 </wgt>
<wgt id='1213'> +2.9066502e+11 </wgt>
<wgt id='1214'> +2.7657017e+11 </wgt>
<wgt id='1215'> +2.8767324e+11 </wgt>
<wgt id='1216'> +2.8376234e+11 </wgt>
<wgt id='1217'> +2.7679780e+11 </wgt>
<wgt id='1218'> +2.8473148e+11 </wgt>
<wgt id='1219'> +2.9378658e+11 </wgt>
<wgt id='1220'> +2.7852946e+11 </wgt>
<wgt id='1221'> +2.7603878e+11 </wgt>
<wgt id='1222'> +2.7913115e+11 </wgt>
<wgt id='1223'> +2.7291681e+11 </wgt>
<wgt id='1224'> +2.8312409e+11 </wgt>
<wgt id='1225'> +2.8828702e+11 </wgt>
<wgt id='1226'> +2.8804962e+11 </wgt>
<wgt id='1227'> +2.7739713e+11 </wgt>
<wgt id='1228'> +2.8184165e+11 </wgt>
<wgt id='1229'> +3.0187013e+11 </wgt>
<wgt id='1230'> +2.9144368e+11 </wgt>
<wgt id='1231'> +2.7780537e+11 </wgt>
<wgt id='1232'> +2.8774457e+11 </wgt>
<wgt id='1233'> +2.7690506e+11 </wgt>
<wgt id='1234'> +2.7683803e+11 </wgt>
<wgt id='1235'> +3.0061832e+11 </wgt>
<wgt id='1236'> +2.7699546e+11 </wgt>
<wgt id='1237'> +2.8906383e+11 </wgt>
<wgt id='1238'> +2.8523965e+11 </wgt>
<wgt id='1239'> +2.8824702e+11 </wgt>
<wgt id='1240'> +2.8126460e+11 </wgt>
<wgt id='1241'> +2.8383795e+11 </wgt>
<wgt id='1242'> +2.8006571e+11 </wgt>
<wgt id='1243'> +2.8688360e+11 </wgt>
<wgt id='1244'> +2.8414354e+11 </wgt>
<wgt id='1245'> +2.8014408e+11 </wgt>
<wgt id='1246'> +3.0551077e+11 </wgt>
<wgt id='1247'> +2.8212958e+11 </wgt>
<wgt id='1248'> +2.7383973e+11 </wgt>
<wgt id='1249'> +2.7632309e+11 </wgt>
<wgt id='1250'> +2.9262994e+11 </wgt>
<wgt id='1251'> +3.0029601e+11 </wgt>
<wgt id='1252'> +2.8814810e+11 </wgt>
<wgt id='1253'> +2.8798854e+11 </wgt>
<wgt id='1254'> +2.8914097e+11 </wgt>
<wgt id='1255'> +3.0052557e+11 </wgt>
<wgt id='1256'> +3.0004174e+11 </wgt>
<wgt id='1257'> +2.9378761e+11 </wgt>
<wgt id='1258'> +2.9707278e+11 </wgt>
<wgt id='1259'> +2.9838898e+11 </wgt>
<wgt id='1260'> +3.2629999e+11 </wgt>
<wgt id='1261'> +3.1435280e+11 </wgt>
<wgt id='1262'> +2.9184815e+11 </wgt>
<wgt id='1263'> +2.9827695e+11 </wgt>
<wgt id='1264'> +3.0086597e+11 </wgt>
<wgt id='1265'> +2.9721006e+11 </wgt>
<wgt id='1266'> +2.9915977e+11 </wgt>
<wgt id='1267'> +3.2890307e+11 </wgt>
<wgt id='1268'> +2.9260703e+11 </wgt>
<wgt id='1269'> +2.8756683e+11 </wgt>
<wgt id='1270'> +2.9757686e+11 </wgt>
<wgt id='1271'> +2.7435438e+11 </wgt>
<wgt id='1272'> +2.9361443e+11 </wgt>
<wgt id='1273'> +2.9163641e+11 </wgt>
<wgt id='1274'> +2.8723478e+11 </wgt>
<wgt id='1275'> +2.9713568e+11 </wgt>
<wgt id='1276'> +2.9884570e+11 </wgt>
<wgt id='1277'> +2.9398076e+11 </wgt>
<wgt id='1278'> +2.9352049e+11 </wgt>
<wgt id='1279'> +2.8095565e+11 </wgt>
<wgt id='1280'> +2.8993099e+11 </wgt>
<wgt id='1281'> +2.8577075e+11 </wgt>
<wgt id='1282'> +2.9655095e+11 </wgt>
<wgt id='1283'> +3.0176580e+11 </wgt>
<wgt id='1284'> +3.1284600e+11 </wgt>
<wgt id='1285'> +3.0869342e+11 </wgt>
<wgt id='1286'> +3.2954039e+11 </wgt>
<wgt id='1287'> +3.0484177e+11 </wgt>
<wgt id='1288'> +3.2771774e+11 </wgt>
<wgt id='1289'> +3.1380508e+11 </wgt>
<wgt id='1290'> +3.1228145e+11 </wgt>
<wgt id='1291'> +2.7851759e+11 </wgt>
<wgt id='1292'> +3.0013250e+11 </wgt>
<wgt id='1293'> +3.0216256e+11 </wgt>
<wgt id='1294'> +3.1787583e+11 </wgt>
<wgt id='1295'> +3.0490023e+11 </wgt>
<wgt id='1296'> +3.2088644e+11 </wgt>
<wgt id='1297'> +2.9424531e+11 </wgt>
<wgt id='1298'> +2.8827336e+11 </wgt>
<wgt id='1299'> +3.0135524e+11 </wgt>
<wgt id='1300'> +2.8812184e+11 </wgt>
<wgt id='1301'> +2.8010655e+11 </wgt>
<wgt id='1302'> +2.8098391e+11 </wgt>
<wgt id='1303'> +3.0067935e+11 </wgt>
<wgt id='1304'> +3.1415844e+11 </wgt>
<wgt id='1305'> +2.9899111e+11 </wgt>
<wgt id='1306'> +3.0611580e+11 </wgt>
<wgt id='1307'> +2.9801182e+11 </wgt>
<wgt id='1308'> +3.2786370e+11 </wgt>
<wgt id='1309'> +2.9818722e+11 </wgt>
<wgt id='1310'> +3.0305704e+11 </wgt>
<wgt id='1311'> +3.0458524e+11 </wgt>
<wgt id='1312'> +3.0418246e+11 </wgt>
<wgt id='1313'> +2.9984783e+11 </wgt>
<wgt id='1314'> +3.0079446e+11 </wgt>
<wgt id='1315'> +2.8669663e+11 </wgt>
<wgt id='1316'> +2.9973252e+11 </wgt>
<wgt id='1317'> +3.0515479e+11 </wgt>
<wgt id='1318'> +2.9002333e+11 </wgt>
<wgt id='1319'> +3.0270486e+11 </wgt>
<wgt id='1320'> +3.1281097e+11 </wgt>
<wgt id='1321'> +2.9666853e+11 </wgt>
<wgt id='1322'> +3.0103987e+11 </wgt>
<wgt id='1323'> +2.9584839e+11 </wgt>
<wgt id='1324'> +3.0380075e+11 </wgt>
<wgt id='1325'> +3.1197785e+11 </wgt>
<wgt id='1326'> +3.0626984e+11 </wgt>
<wgt id='1327'> +3.0201923e+11 </wgt>
<wgt id='1328'> +2.9986711e+11 </wgt>
<wgt id='1329'> +2.9842213e+11 </wgt>
<wgt id='1330'> +2.8898816e+11 </wgt>
<wgt id='1331'> +3.2107511e+11 </wgt>
<wgt id='1332'> +2.9053701e+11 </wgt>
<wgt id='1333'> +3.0189953e+11 </wgt>
<wgt id='1334'> +3.1524479e+11 </wgt>
<wgt id='1335'> +2.9341499e+11 </wgt>
<wgt id='1336'> +3.0805717e+11 </wgt>
<wgt id='1337'> +3.0911747e+11 </wgt>
<wgt id='1338'> +2.8947538e+11 </wgt>
<wgt id='1339'> +3.1888550e+11 </wgt>
<wgt id='1340'> +3.0386090e+11 </wgt>
<wgt id='1341'> +3.1152208e+11 </wgt>
<wgt id='1342'> +3.1088198e+11 </wgt>
<wgt id='1343'> +3.1004883e+11 </wgt>
<wgt id='1344'> +3.0976426e+11 </wgt>
<wgt id='1345'> +2.7420982e+11 </wgt>
<wgt id='1346'> +3.0199160e+11 </wgt>
<wgt id='1347'> +2.8930211e+11 </wgt>
<wgt id='1348'> +2.8950771e+11 </wgt>
<wgt id='1349'> +2.8858524e+11 </wgt>
<wgt id='1350'> +3.0381745e+11 </wgt>
<wgt id='1351'> +2.9498354e+11 </wgt>
<wgt id='1352'> +3.0229273e+11 </wgt>
<wgt id='1353'> +2.9894695e+11 </wgt>
<wgt id='1354'> +3.0833319e+11 </wgt>
<wgt id='1355'> +2.7590804e+11 </wgt>
<wgt id='1356'> +2.7861018e+11 </wgt>
<wgt id='1357'> +2.7639523e+11 </wgt>
<wgt id='1358'> +2.7372889e+11 </wgt>
<wgt id='1359'> +2.7618293e+11 </wgt>
<wgt id='1360'> +2.7004110e+11 </wgt>
<wgt id='1361'> +2.7540507e+11 </wgt>
<wgt id='1362'> +2.8019870e+11 </wgt>
<wgt id='1363'> +2.7129180e+11 </wgt>
<wgt id='1364'> +2.8123692e+11 </wgt>
<wgt id='1365'> +2.7366831e+11 </wgt>
<wgt id='1366'> +2.7424038e+11 </wgt>
<wgt id='1367'> +2.7647954e+11 </wgt>
<wgt id='1368'> +2.7613104e+11 </wgt>
<wgt id='1369'> +2.7923470e+11 </wgt>
<wgt id='1370'> +2.7388043e+11 </wgt>
<wgt id='1371'> +2.7512847e+11 </wgt>
<wgt id='1372'> +2.7935066e+11 </wgt>
<wgt id='1373'> +2.7925091e+11 </wgt>
<wgt id='1374'> +2.6798157e+11 </wgt>
<wgt id='1375'> +2.7582286e+11 </wgt>
<wgt id='1376'> +2.7596712e+11 </wgt>
<wgt id='1377'> +2.7633198e+11 </wgt>
<wgt id='1378'> +2.7332486e+11 </wgt>
<wgt id='1379'> +2.7438778e+11 </wgt>
<wgt id='1380'> +2.7382048e+11 </wgt>
<wgt id='1381'> +2.8097249e+11 </wgt>
<wgt id='1382'> +2.7526262e+11 </wgt>
<wgt id='1383'> +2.7479504e+11 </wgt>
<wgt id='1384'> +2.7343323e+11 </wgt>
<wgt id='1385'> +2.7318818e+11 </wgt>
<wgt id='1386'> +2.7637523e+11 </wgt>
<wgt id='1387'> +2.7452138e+11 </wgt>
<wgt id='1388'> +2.7164811e+11 </wgt>
<wgt id='1389'> +2.7470157e+11 </wgt>
<wgt id='1390'> +2.7629483e+11 </wgt>
<wgt id='1391'> +2.7380483e+11 </wgt>
<wgt id='1392'> +2.7347768e+11 </wgt>
<wgt id='1393'> +2.7504982e+11 </wgt>
<wgt id='1394'> +2.7400184e+11 </wgt>
<wgt id='1395'> +2.7137402e+11 </wgt>
<wgt id='1396'> +2.7664839e+11 </wgt>
<wgt id='1397'> +2.7667524e+11 </wgt>
<wgt id='1398'> +2.7723848e+11 </wgt>
<wgt id='1399'> +2.7248383e+11 </wgt>
<wgt id='1400'> +2.7218648e+11 </wgt>
<wgt id='1401'> +2.7549720e+11 </wgt>
<wgt id='1402'> +2.7888472e+11 </wgt>
<wgt id='1403'> +2.8077497e+11 </wgt>
<wgt id='1404'> +2.7581434e+11 </wgt>
<wgt id='1405'> +2.8212354e+11 </wgt>
<wgt id='1406'> +2.7669680e+11 </wgt>
<wgt id='1407'> +2.7633223e+11 </wgt>
<wgt id='1408'> +2.8004290e+11 </wgt>
<wgt id='1409'> +2.7294324e+11 </wgt>
<wgt id='1410'> +2.7126998e+11 </wgt>
<wgt id='1411'> +2.7561990e+11 </wgt>
<wgt id='1412'> +2.7425726e+11 </wgt>
<wgt id='1413'> +2.7370784e+11 </wgt>
<wgt id='1414'> +2.7812430e+11 </wgt>
<wgt id='1415'> +2.8015606e+11 </wgt>
<wgt id='1416'> +2.7851618e+11 </wgt>
<wgt id='1417'> +2.7086480e+11 </wgt>
<wgt id='1418'> +2.7670857e+11 </wgt>
<wgt id='1419'> +2.7965220e+11 </wgt>
<wgt id='1420'> +2.7448216e+11 </wgt>
<wgt id='1421'> +2.8200864e+11 </wgt>
<wgt id='1422'> +2.6886210e+11 </wgt>
<wgt id='1423'> +2.8090550e+11 </wgt>
<wgt id='1424'> +2.7707856e+11 </wgt>
<wgt id='1425'> +2.7641778e+11 </wgt>
<wgt id='1426'> +2.7861888e+11 </wgt>
<wgt id='1427'> +2.7558894e+11 </wgt>
<wgt id='1428'> +2.7545103e+11 </wgt>
<wgt id='1429'> +2.7381710e+11 </wgt>
<wgt id='1430'> +2.7167104e+11 </wgt>
<wgt id='1431'> +2.7090453e+11 </wgt>
<wgt id='1432'> +2.7637750e+11 </wgt>
<wgt id='1433'> +2.7512354e+11 </wgt>
<wgt id='1434'> +2.8318501e+11 </wgt>
<wgt id='1435'> +2.7489501e+11 </wgt>
<wgt id='1436'> +2.7971885e+11 </wgt>
<wgt id='1437'> +2.7716488e+11 </wgt>
<wgt id='1438'> +2.7464513e+11 </wgt>
<wgt id='1439'> +2.7834867e+11 </wgt>
<wgt id='1440'> +2.7939746e+11 </wgt>
<wgt id='1441'> +2.7443722e+11 </wgt>
<wgt id='1442'> +2.8202555e+11 </wgt>
<wgt id='1443'> +2.7374463e+11 </wgt>
<wgt id='1444'> +2.7631112e+11 </wgt>
<wgt id='1445'> +2.7778675e+11 </wgt>
<wgt id='1446'> +2.7988616e+11 </wgt>
<wgt id='1447'> +2.7282995e+11 </wgt>
<wgt id='1448'> +2.7831727e+11 </wgt>
<wgt id='1449'> +2.7814003e+11 </wgt>
<wgt id='1450'> +2.7473758e+11 </wgt>
<wgt id='1451'> +2.7729161e+11 </wgt>
<wgt id='1452'> +2.7845707e+11 </wgt>
<wgt id='1453'> +2.7887925e+11 </wgt>
<wgt id='1454'> +2.6863810e+11 </wgt>
<wgt id='1455'> +2.7492571e+11 </wgt>
<wgt id='1456'> +2.7501044e+11 </wgt>
<wgt id='1457'> +2.7481342e+11 </wgt>
<wgt id='1458'> +2.7912776e+11 </wgt>
<wgt id='1459'> +3.0732450e+11 </wgt>
<wgt id='1460'> +3.0253067e+11 </wgt>
<wgt id='1461'> +3.5347290e+11 </wgt>
<wgt id='1462'> +2.9888790e+11 </wgt>
<wgt id='1463'> +2.9912697e+11 </wgt>
<wgt id='1464'> +2.9858128e+11 </wgt>
<wgt id='1465'> +2.9895109e+11 </wgt>
<wgt id='1466'> +2.9883015e+11 </wgt>
<wgt id='1467'> +2.9903389e+11 </wgt>
<wgt id='1468'> +2.9864834e+11 </wgt>
<wgt id='1469'> +2.9844571e+11 </wgt>
<wgt id='1470'> +2.9924702e+11 </wgt>
<wgt id='1471'> +2.9935439e+11 </wgt>
<wgt id='1472'> +2.9840741e+11 </wgt>
<wgt id='1473'> +3.0004965e+11 </wgt>
<wgt id='1474'> +2.9777205e+11 </wgt>
<wgt id='1475'> +2.9999339e+11 </wgt>
<wgt id='1476'> +2.9810414e+11 </wgt>
<wgt id='1477'> +2.9832550e+11 </wgt>
<wgt id='1478'> +3.0020168e+11 </wgt>
<wgt id='1479'> +2.9839232e+11 </wgt>
<wgt id='1480'> +2.9923529e+11 </wgt>
<wgt id='1481'> +2.9843653e+11 </wgt>
<wgt id='1482'> +2.9949707e+11 </wgt>
<wgt id='1483'> +2.9897630e+11 </wgt>
<wgt id='1484'> +2.9876304e+11 </wgt>
<wgt id='1485'> +2.9909351e+11 </wgt>
<wgt id='1486'> +2.9839276e+11 </wgt>
<wgt id='1487'> +2.9915011e+11 </wgt>
<wgt id='1488'> +2.9855932e+11 </wgt>
<wgt id='1489'> +2.9853077e+11 </wgt>
<wgt id='1490'> +2.9985615e+11 </wgt>
<wgt id='1491'> +3.0381248e+11 </wgt>
<wgt id='1492'> +2.9614086e+11 </wgt>
<wgt id='1493'> +2.9535407e+11 </wgt>
<wgt id='1494'> +3.0996652e+11 </wgt>
<wgt id='1495'> +2.9820448e+11 </wgt>
<wgt id='1496'> +2.9962118e+11 </wgt>
<wgt id='1497'> +2.9908676e+11 </wgt>
<wgt id='1498'> +2.9861610e+11 </wgt>
<wgt id='1499'> +3.0080243e+11 </wgt>
<wgt id='1500'> +2.9784104e+11 </wgt>
<wgt id='1501'> +2.9932896e+11 </wgt>
<wgt id='1502'> +2.9771966e+11 </wgt>
<wgt id='1503'> +2.9552645e+11 </wgt>
<wgt id='1504'> +3.0250636e+11 </wgt>
<wgt id='1505'> +2.9982639e+11 </wgt>
<wgt id='1506'> +2.9797907e+11 </wgt>
<wgt id='1507'> +3.0067008e+11 </wgt>
<wgt id='1508'> +2.9706874e+11 </wgt>
<wgt id='1509'> +2.9951008e+11 </wgt>
<wgt id='1510'> +2.9621451e+11 </wgt>
<wgt id='1511'> +3.0003325e+11 </wgt>
<wgt id='1512'> +2.9854757e+11 </wgt>
<wgt id='1513'> +2.9879411e+11 </wgt>
<wgt id='1514'> +2.9898685e+11 </wgt>
<wgt id='1515'> +3.0159232e+11 </wgt>
<wgt id='1516'> +2.9914642e+11 </wgt>
<wgt id='1517'> +2.9848345e+11 </wgt>
<wgt id='1518'> +2.9928115e+11 </wgt>
<wgt id='1519'> +2.9717500e+11 </wgt>
<wgt id='1520'> +3.0010540e+11 </wgt>
<wgt id='1521'> +2.9801399e+11 </wgt>
<wgt id='1522'> +2.9940177e+11 </wgt>
<wgt id='1523'> +3.0018719e+11 </wgt>
<wgt id='1524'> +3.0032361e+11 </wgt>
<wgt id='1525'> +2.9999372e+11 </wgt>
<wgt id='1526'> +2.9983570e+11 </wgt>
<wgt id='1527'> +2.9888790e+11 </wgt>
<wgt id='1528'> +2.9850192e+11 </wgt>
<wgt id='1529'> +2.9880172e+11 </wgt>
<wgt id='1530'> +2.9504424e+11 </wgt>
<wgt id='1531'> +2.9716115e+11 </wgt>
<wgt id='1532'> +2.9495337e+11 </wgt>
<wgt id='1533'> +2.9239814e+11 </wgt>
<wgt id='1534'> +2.9558381e+11 </wgt>
<wgt id='1535'> +2.9961494e+11 </wgt>
<wgt id='1536'> +2.9462308e+11 </wgt>
<wgt id='1537'> +2.9724582e+11 </wgt>
<wgt id='1538'> +2.9395634e+11 </wgt>
<wgt id='1539'> +3.0295650e+11 </wgt>
<wgt id='1540'> +2.9672573e+11 </wgt>
<wgt id='1541'> +2.9790210e+11 </wgt>
<wgt id='1542'> +2.9716521e+11 </wgt>
<wgt id='1543'> +2.9846294e+11 </wgt>
<wgt id='1544'> +2.9527312e+11 </wgt>
<wgt id='1545'> +2.9515897e+11 </wgt>
<wgt id='1546'> +2.9321875e+11 </wgt>
<wgt id='1547'> +2.9947938e+11 </wgt>
<wgt id='1548'> +2.9533690e+11 </wgt>
<wgt id='1549'> +2.9366444e+11 </wgt>
<wgt id='1550'> +2.9819246e+11 </wgt>
<wgt id='1551'> +2.9774476e+11 </wgt>
<wgt id='1552'> +2.9670873e+11 </wgt>
<wgt id='1553'> +2.9956891e+11 </wgt>
<wgt id='1554'> +2.9707256e+11 </wgt>
<wgt id='1555'> +2.9786326e+11 </wgt>
<wgt id='1556'> +2.9953223e+11 </wgt>
<wgt id='1557'> +2.9608578e+11 </wgt>
<wgt id='1558'> +2.9728058e+11 </wgt>
<wgt id='1559'> +2.9493112e+11 </wgt>
<wgt id='1560'> +2.9589366e+11 </wgt>
<wgt id='1561'> +2.9386827e+11 </wgt>
<wgt id='1562'> +2.9579616e+11 </wgt>
<wgt id='1563'> +2.9722684e+11 </wgt>
<wgt id='1564'> +2.9672542e+11 </wgt>
<wgt id='1565'> +2.9927939e+11 </wgt>
<wgt id='1566'> +2.9710955e+11 </wgt>
<wgt id='1567'> +3.0039763e+11 </wgt>
<wgt id='1568'> +2.9708086e+11 </wgt>
<wgt id='1569'> +2.9677106e+11 </wgt>
<wgt id='1570'> +3.0442029e+11 </wgt>
<wgt id='1571'> +2.9704534e+11 </wgt>
<wgt id='1572'> +2.9920993e+11 </wgt>
<wgt id='1573'> +3.0055261e+11 </wgt>
<wgt id='1574'> +2.6285329e+11 </wgt>
<wgt id='1575'> +2.6292422e+11 </wgt>
<wgt id='1576'> +2.6278541e+11 </wgt>
<wgt id='1577'> +2.6287151e+11 </wgt>
<wgt id='1578'> +2.6345825e+11 </wgt>
<wgt id='1579'> +2.6369885e+11 </wgt>
<wgt id='1580'> +2.6346993e+11 </wgt>
<wgt id='1581'> +2.6226669e+11 </wgt>
<wgt id='1582'> +2.6197095e+11 </wgt>
<wgt id='1583'> +2.6240412e+11 </wgt>
<wgt id='1584'> +2.6342935e+11 </wgt>
<wgt id='1585'> +2.6305657e+11 </wgt>
<wgt id='1586'> +2.6189078e+11 </wgt>
<wgt id='1587'> +2.6211739e+11 </wgt>
<wgt id='1588'> +2.6163129e+11 </wgt>
<wgt id='1589'> +2.6258263e+11 </wgt>
<wgt id='1590'> +2.6267858e+11 </wgt>
<wgt id='1591'> +2.6292491e+11 </wgt>
<wgt id='1592'> +2.6183544e+11 </wgt>
<wgt id='1593'> +2.6192329e+11 </wgt>
<wgt id='1594'> +2.6373538e+11 </wgt>
<wgt id='1595'> +2.6053225e+11 </wgt>
<wgt id='1596'> +2.6662604e+11 </wgt>
<wgt id='1597'> +2.6461538e+11 </wgt>
<wgt id='1598'> +2.6481160e+11 </wgt>
<wgt id='1599'> +2.6003260e+11 </wgt>
<wgt id='1600'> +2.6741402e+11 </wgt>
<wgt id='1601'> +2.6499697e+11 </wgt>
<wgt id='1602'> +2.6290104e+11 </wgt>
<wgt id='1603'> +2.7431440e+11 </wgt>
<wgt id='1604'> +2.6290965e+11 </wgt>
</rwgt>
</event>
<event>
 9      1 +2.8343000e+11 1.40000000e+03 7.81738600e-03 7.88881200e-02
       21 -1    0    0  504  503 +0.0000000000e+00 +0.0000000000e+00 +2.7461180533e+02 2.7461180533e+02 0.0000000000e+00 0.0000e+00 -1.0000e+00
       21 -1    0    0  503  504 -0.0000000000e+00 -0.0000000000e+00 -1.7843361101e+03 1.7843361101e+03 0.0000000000e+00 0.0000e+00 -1.0000e+00
       45  2    1    2    0    0 +0.0000000000e+00 -5.6843418861e-14 -1.5097243047e+03 2.0589479154e+03 1.3999996578e+03 0.0000e+00 0.0000e+00
       25  2    3    3    0    0 +2.6162926497e+02 +3.6897579642e+02 -1.5269559462e+03 1.5974395979e+03 1.2500318575e+02 0.0000e+00 0.0000e+00
       35  2    3    3    0    0 -2.6162926497e+02 -3.6897579642e+02 +1.7231641503e+01 4.6150831752e+02 8.9999928019e+01 0.0000e+00 0.0000e+00
        5  1    5    5  501    0 -8.8105506861e+00 -5.5356123487e+01 +1.6747033434e+01 5.8652767503e+01 4.2140000000e+00 0.0000e+00 1.0000e+00
       -5  1    5    5    0  501 -2.5281871428e+02 -3.1361967293e+02 +4.8460806884e-01 4.0285555002e+02 4.2140000000e+00 0.0000e+00 1.0000e+00
        5  1    4    4  502    0 +1.3783631197e+02 +2.8151839594e+02 -9.2477323506e+02 9.7646031677e+02 4.2140000000e+00 0.0000e+00 -1.0000e+00
       -5  1    4    4    0  502 +1.2379295300e+02 +8.7457400481e+01 -6.0218271118e+02 6.2097928109e+02 4.2140000000e+00 0.0000e+00 -1.0000e+00
<mgrwt>
<rscale>  0 0.13999997E+04</rscale>
<asrwt>0</asrwt>
<pdfrwt beam="1">  1       21 0.42247969E-01 0.13999997E+04</pdfrwt>
<pdfrwt beam="2">  1       21 0.27451325E+00 0.13999997E+04</pdfrwt>
<totfact> 0.15404476E+02</totfact>
</mgrwt>
<rwgt>
<wgt id='1001'> +2.8343000e+11 </wgt>
<wgt id='1002'> +3.0485828e+11 </wgt>
<wgt id='1003'> +3.0485275e+11 </wgt>
<wgt id='1004'> +3.4653984e+11 </wgt>
<wgt id='1005'> +2.8343000e+11 </wgt>
<wgt id='1006'> +2.8343000e+11 </wgt>
<wgt id='1007'> +3.0485828e+11 </wgt>
<wgt id='1008'> +3.0485275e+11 </wgt>
<wgt id='1009'> +3.4653984e+11 </wgt>
<wgt id='1010'> +2.8343000e+11 </wgt>
<wgt id='1011'> +2.8343000e+11 </wgt>
<wgt id='1012'> +3.0485828e+11 </wgt>
<wgt id='1013'> +3.0485275e+11 </wgt>
<wgt id='1014'> +3.4653984e+11 </wgt>
<wgt id='1015'> +2.8343000e+11 </wgt>
<wgt id='1016'> +2.5245908e+11 </wgt>
<wgt id='1017'> +2.7036245e+11 </wgt>
<wgt id='1018'> +2.7035785e+11 </wgt>
<wgt id='1019'> +3.0485275e+11 </wgt>
<wgt id='1020'> +2.5245908e+11 </wgt>
<wgt id='1021'> +2.5245908e+11 </wgt>
<wgt id='1022'> +2.7036245e+11 </wgt>
<wgt id='1023'> +2.7035785e+11 </wgt>
<wgt id='1024'> +3.0485275e+11 </wgt>
<wgt id='1025'> +2.5245908e+11 </wgt>
<wgt id='1026'> +2.5245908e+11 </wgt>
<wgt id='1027'> +2.7036245e+11 </wgt>
<wgt id='1028'> +2.7035785e+11 </wgt>
<wgt id='1029'> +3.0485275e+11 </wgt>
<wgt id='1030'> +2.5245908e+11 </wgt>
<wgt id='1031'> +3.2062267e+11 </wgt>
<wgt id='1032'> +3.4654654e+11 </wgt>
<wgt id='1033'> +3.4653984e+11 </wgt>
<wgt id='1034'> +3.9744907e+11 </wgt>
<wgt id='1035'> +3.2062267e+11 </wgt>
<wgt id='1036'> +3.2062267e+11 </wgt>
<wgt id='1037'> +3.4654654e+11 </wgt>
<wgt id='1038'> +3.4653984e+11 </wgt>
<wgt id='1039'> +3.9744907e+11 </wgt>
<wgt id='1040'> +3.2062267e+11 </wgt>
<wgt id='1041'> +3.2062267e+11 </wgt>
<wgt id='1042'> +3.4654654e+11 </wgt>
<wgt id='1043'> +3.4653984e+11 </wgt>
<wgt id='1044'> +3.9744907e+11 </wgt>
<wgt id='1045'> +3.2062267e+11 </wgt>
<wgt id='1046'> +2.8343000e+11 </wgt>
<wgt id='1047'> +2.8343000e+11 </wgt>
<wgt id='1048'> +2.8343000e+11 </wgt>
<wgt id='1049'> +2.8323898e+11 </wgt>
<wgt id='1050'> +2.8281363e+11 </wgt>
<wgt id='1051'> +2.8355714e+11 </wgt>
<wgt id='1052'> +2.8367872e+11 </wgt>
<wgt id='1053'> +2.8158325e+11 </wgt>
<wgt id='1054'> +2.8476467e+11 </wgt>
<wgt id='1055'> +2.8197709e+11 </wgt>
<wgt id='1056'> +2.8159417e+11 </wgt>
<wgt id='1057'> +2.8221679e+11 </wgt>
<wgt id='1058'> +2.8282348e+11 </wgt>
<wgt id='1059'> +2.8579284e+11 </wgt>
<wgt id='1060'> +2.8323701e+11 </wgt>
<wgt id='1061'> +2.8446078e+11 </wgt>
<wgt id='1062'> +2.8461408e+11 </wgt>
<wgt id='1063'> +2.8471070e+11 </wgt>
<wgt id='1064'> +2.8460665e+11 </wgt>
<wgt id='1065'> +2.8536212e+11 </wgt>
<wgt id='1066'> +2.8217400e+11 </wgt>
<wgt id='1067'> +2.8203597e+11 </wgt>
<wgt id='1068'> +2.8413111e+11 </wgt>
<wgt id='1069'> +2.8243112e+11 </wgt>
<wgt id='1070'> +2.8354755e+11 </wgt>
<wgt id='1071'> +2.8399408e+11 </wgt>
<wgt id='1072'> +2.8323322e+11 </wgt>
<wgt id='1073'> +2.8245312e+11 </wgt>
<wgt id='1074'> +2.8261959e+11 </wgt>
<wgt id='1075'> +2.8200541e+11 </wgt>
<wgt id='1076'> +2.8318811e+11 </wgt>
<wgt id='1077'> +2.8112963e+11 </wgt>
<wgt id='1078'> +2.8279568e+11 </wgt>
<wgt id='1079'> +2.8260360e+11 </wgt>
<wgt id='1080'> +2.8260399e+11 </wgt>
<wgt id='1081'> +2.8308789e+11 </wgt>
<wgt id='1082'> +2.8348529e+11 </wgt>
<wgt id='1083'> +2.8422499e+11 </wgt>
<wgt id='1084'> +2.8389052e+11 </wgt>
<wgt id='1085'> +2.8203137e+11 </wgt>
<wgt id='1086'> +2.8503495e+11 </wgt>
<wgt id='1087'> +2.8388684e+11 </wgt>
<wgt id='1088'> +2.8262393e+11 </wgt>
<wgt id='1089'> +2.8265133e+11 </wgt>
<wgt id='1090'> +2.8427949e+11 </wgt>
<wgt id='1091'> +2.8381939e+11 </wgt>
<wgt id='1092'> +2.8350264e+11 </wgt>
<wgt id='1093'> +2.8330406e+11 </wgt>
<wgt id='1094'> +2.8176975e+11 </wgt>
<wgt id='1095'> +2.8400512e+11 </wgt>
<wgt id='1096'> +2.8350080e+11 </wgt>
<wgt id='1097'> +2.8253728e+11 </wgt>
<wgt id='1098'> +2.8306356e+11 </wgt>
<wgt id='1099'> +2.8337554e+11 </wgt>
<wgt id='1100'> +2.8384555e+11 </wgt>
<wgt id='1101'> +2.8338488e+11 </wgt>
<wgt id='1102'> +2.8327746e+11 </wgt>
<wgt id='1103'> +2.8203620e+11 </wgt>
<wgt id='1104'> +2.8367196e+11 </wgt>
<wgt id='1105'> +2.8355550e+11 </wgt>
<wgt id='1106'> +2.8395335e+11 </wgt>
<wgt id='1107'> +2.8392673e+11 </wgt>
<wgt id='1108'> +2.8311951e+11 </wgt>
<wgt id='1109'> +2.8352760e+11 </wgt>
<wgt id='1110'> +2.8349729e+11 </wgt>
<wgt id='1111'> +2.8419635e+11 </wgt>
<wgt id='1112'> +2.8310743e+11 </wgt>
<wgt id='1113'> +2.8377698e+11 </wgt>
<wgt id='1114'> +2.8310744e+11 </wgt>
<wgt id='1115'> +2.8252317e+11 </wgt>
<wgt id='1116'> +2.8453855e+11 </wgt>
<wgt id='1117'> +2.8326014e+11 </wgt>
<wgt id='1118'> +2.8407577e+11 </wgt>
<wgt id='1119'> +2.8268914e+11 </wgt>
<wgt id='1120'> +2.8262827e+11 </wgt>
<wgt id='1121'> +2.8341828e+11 </wgt>
<wgt id='1122'> +2.8274395e+11 </wgt>
<wgt id='1123'> +2.8335643e+11 </wgt>
<wgt id='1124'> +2.8366650e+11 </wgt>
<wgt id='1125'> +2.8364557e+11 </wgt>
<wgt id='1126'> +2.8358269e+11 </wgt>
<wgt id='1127'> +2.8336696e+11 </wgt>
<wgt id='1128'> +2.8330368e+11 </wgt>
<wgt id='1129'> +2.8307904e+11 </wgt>
<wgt id='1130'> +2.8346291e+11 </wgt>
<wgt id='1131'> +2.8431467e+11 </wgt>
<wgt id='1132'> +2.8321636e+11 </wgt>
<wgt id='1133'> +2.8368419e+11 </wgt>
<wgt id='1134'> +2.8331214e+11 </wgt>
<wgt id='1135'> +2.8349740e+11 </wgt>
<wgt id='1136'> +2.8318290e+11 </wgt>
<wgt id='1137'> +2.8305914e+11 </wgt>
<wgt id='1138'> +2.8361878e+11 </wgt>
<wgt id='1139'> +2.8371469e+11 </wgt>
<wgt id='1140'> +2.8380548e+11 </wgt>
<wgt id='1141'> +2.8301627e+11 </wgt>
<wgt id='1142'> +2.8346499e+11 </wgt>
<wgt id='1143'> +2.8373354e+11 </wgt>
<wgt id='1144'> +2.8333008e+11 </wgt>
<wgt id='1145'> +2.8366451e+11 </wgt>
<wgt id='1146'> +2.8361279e+11 </wgt>
<wgt id='1147'> +2.8352589e+11 </wgt>
<wgt id='1148'> +2.8343000e+11 </wgt>
<wgt id='1149'> +2.8343000e+11 </wgt>
<wgt id='1150'> +2.8618817e+11 </wgt>
<wgt id='1151'> +2.7778987e+11 </wgt>
<wgt id='1152'> +2.7688082e+11 </wgt>
<wgt id='1153'> +2.8537302e+11 </wgt>
<wgt id='1154'> +2.7339639e+11 </wgt>
<wgt id='1155'> +3.0050058e+11 </wgt>
<wgt id='1156'> +2.8575000e+11 </wgt>
<wgt id='1157'> +2.8064998e+11 </wgt>
<wgt id='1158'> +2.7865017e+11 </wgt>
<wgt id='1159'> +2.8994258e+11 </wgt>
<wgt id='1160'> +2.7629617e+11 </wgt>
<wgt id='1161'> +2.9922615e+11 </wgt>
<wgt id='1162'> +2.8480927e+11 </wgt>
<wgt id='1163'> +2.8811558e+11 </wgt>
<wgt id='1164'> +2.7102734e+11 </wgt>
<wgt id='1165'> +2.7308757e+11 </wgt>
<wgt id='1166'> +2.8330781e+11 </wgt>
<wgt id='1167'> +2.8001864e+11 </wgt>
<wgt id='1168'> +2.6916174e+11 </wgt>
<wgt id='1169'> +2.7404703e+11 </wgt>
<wgt id='1170'> +2.8353765e+11 </wgt>
<wgt id='1171'> +2.7397302e+11 </wgt>
<wgt id='1172'> +2.6870365e+11 </wgt>
<wgt id='1173'> +2.8883685e+11 </wgt>
<wgt id='1174'> +2.7979621e+11 </wgt>
<wgt id='1175'> +2.7761013e+11 </wgt>
<wgt id='1176'> +2.8926502e+11 </wgt>
<wgt id='1177'> +2.8635691e+11 </wgt>
<wgt id='1178'> +2.8559418e+11 </wgt>
<wgt id='1179'> +2.9495074e+11 </wgt>
<wgt id='1180'> +2.8270175e+11 </wgt>
<wgt id='1181'> +2.8586884e+11 </wgt>
<wgt id='1182'> +2.8399009e+11 </wgt>
<wgt id='1183'> +2.9138870e+11 </wgt>
<wgt id='1184'> +2.6456050e+11 </wgt>
<wgt id='1185'> +2.9168831e+11 </wgt>
<wgt id='1186'> +2.7719036e+11 </wgt>
<wgt id='1187'> +2.9257536e+11 </wgt>
<wgt id='1188'> +2.9592617e+11 </wgt>
<wgt id='1189'> +2.8773432e+11 </wgt>
<wgt id='1190'> +2.8227935e+11 </wgt>
<wgt id='1191'> +2.9792030e+11 </wgt>
<wgt id='1192'> +2.8702210e+11 </wgt>
<wgt id='1193'> +2.8712895e+11 </wgt>
<wgt id='1194'> +2.7329984e+11 </wgt>
<wgt id='1195'> +2.9257739e+11 </wgt>
<wgt id='1196'> +2.8485375e+11 </wgt>
<wgt id='1197'> +2.9079118e+11 </wgt>
<wgt id='1198'> +2.8129981e+11 </wgt>
<wgt id='1199'> +2.8337544e+11 </wgt>
<wgt id='1200'> +2.9164978e+11 </wgt>
<wgt id='1201'> +2.8866992e+11 </wgt>
<wgt id='1202'> +2.8046240e+11 </wgt>
<wgt id='1203'> +2.8912604e+11 </wgt>
<wgt id='1204'> +2.7573315e+11 </wgt>
<wgt id='1205'> +2.9105444e+11 </wgt>
<wgt id='1206'> +2.7903491e+11 </wgt>
<wgt id='1207'> +2.9577673e+11 </wgt>
<wgt id='1208'> +2.7686839e+11 </wgt>
<wgt id='1209'> +2.8346540e+11 </wgt>
<wgt id='1210'> +2.8383432e+11 </wgt>
<wgt id='1211'> +2.8201066e+11 </wgt>
<wgt id='1212'> +2.7733791e+11 </wgt>
<wgt id='1213'> +2.8084001e+11 </wgt>
<wgt id='1214'> +2.8003269e+11 </wgt>
<wgt id='1215'> +2.8446352e+11 </wgt>
<wgt id='1216'> +2.7289991e+11 </wgt>
<wgt id='1217'> +2.8590500e+11 </wgt>
<wgt id='1218'> +2.8148632e+11 </wgt>
<wgt id='1219'> +2.8869761e+11 </wgt>
<wgt id='1220'> +2.7909750e+11 </wgt>
<wgt id='1221'> +2.7152274e+11 </wgt>
<wgt id='1222'> +2.7915636e+11 </wgt>
<wgt id='1223'> +2.7501793e+11 </wgt>
<wgt id='1224'> +2.8106817e+11 </wgt>
<wgt id='1225'> +2.7789506e+11 </wgt>
<wgt id='1226'> +2.8437762e+11 </wgt>
<wgt id='1227'> +2.7297713e+11 </wgt>
<wgt id='1228'> +2.7738786e+11 </wgt>
<wgt id='1229'> +2.9653596e+11 </wgt>
<wgt id='1230'> +2.8574106e+11 </wgt>
<wgt id='1231'> +2.7308757e+11 </wgt>
<wgt id='1232'> +2.9097120e+11 </wgt>
<wgt id='1233'> +2.7923233e+11 </wgt>
<wgt id='1234'> +2.8073001e+11 </wgt>
<wgt id='1235'> +3.0514266e+11 </wgt>
<wgt id='1236'> +2.8565486e+11 </wgt>
<wgt id='1237'> +2.9491066e+11 </wgt>
<wgt id='1238'> +2.9450699e+11 </wgt>
<wgt id='1239'> +2.9172383e+11 </wgt>
<wgt id='1240'> +2.7620534e+11 </wgt>
<wgt id='1241'> +2.8981080e+11 </wgt>
<wgt id='1242'> +2.8312185e+11 </wgt>
<wgt id='1243'> +2.7917440e+11 </wgt>
<wgt id='1244'> +2.9145109e+11 </wgt>
<wgt id='1245'> +2.6686712e+11 </wgt>
<wgt id='1246'> +3.0294503e+11 </wgt>
<wgt id='1247'> +2.8055891e+11 </wgt>
<wgt id='1248'> +2.7546101e+11 </wgt>
<wgt id='1249'> +2.7569080e+11 </wgt>
<wgt id='1250'> +2.9748433e+11 </wgt>
<wgt id='1251'> +3.0964324e+11 </wgt>
<wgt id='1252'> +2.8849907e+11 </wgt>
<wgt id='1253'> +3.1085661e+11 </wgt>
<wgt id='1254'> +2.9343812e+11 </wgt>
<wgt id='1255'> +3.1646059e+11 </wgt>
<wgt id='1256'> +3.1156650e+11 </wgt>
<wgt id='1257'> +2.9605109e+11 </wgt>
<wgt id='1258'> +2.9353942e+11 </wgt>
<wgt id='1259'> +3.2525577e+11 </wgt>
<wgt id='1260'> +3.4560876e+11 </wgt>
<wgt id='1261'> +3.2980770e+11 </wgt>
<wgt id='1262'> +3.0384443e+11 </wgt>
<wgt id='1263'> +3.0888925e+11 </wgt>
<wgt id='1264'> +3.0535418e+11 </wgt>
<wgt id='1265'> +2.8690338e+11 </wgt>
<wgt id='1266'> +3.0825676e+11 </wgt>
<wgt id='1267'> +3.9060654e+11 </wgt>
<wgt id='1268'> +2.8614732e+11 </wgt>
<wgt id='1269'> +2.8399543e+11 </wgt>
<wgt id='1270'> +3.2304963e+11 </wgt>
<wgt id='1271'> +2.5329084e+11 </wgt>
<wgt id='1272'> +3.0191087e+11 </wgt>
<wgt id='1273'> +2.9423432e+11 </wgt>
<wgt id='1274'> +2.9316548e+11 </wgt>
<wgt id='1275'> +2.8966061e+11 </wgt>
<wgt id='1276'> +3.1806277e+11 </wgt>
<wgt id='1277'> +3.1766107e+11 </wgt>
<wgt id='1278'> +3.1115590e+11 </wgt>
<wgt id='1279'> +2.7722435e+11 </wgt>
<wgt id='1280'> +2.9835584e+11 </wgt>
<wgt id='1281'> +2.8625715e+11 </wgt>
<wgt id='1282'> +2.9286740e+11 </wgt>
<wgt id='1283'> +3.3145590e+11 </wgt>
<wgt id='1284'> +2.9854865e+11 </wgt>
<wgt id='1285'> +3.0252597e+11 </wgt>
<wgt id='1286'> +3.5171673e+11 </wgt>
<wgt id='1287'> +3.5014927e+11 </wgt>
<wgt id='1288'> +3.7214195e+11 </wgt>
<wgt id='1289'> +3.2978174e+11 </wgt>
<wgt id='1290'> +3.1776169e+11 </wgt>
<wgt id='1291'> +2.8320517e+11 </wgt>
<wgt id='1292'> +3.1313112e+11 </wgt>
<wgt id='1293'> +3.0600628e+11 </wgt>
<wgt id='1294'> +3.5558665e+11 </wgt>
<wgt id='1295'> +3.1850911e+11 </wgt>
<wgt id='1296'> +3.6202290e+11 </wgt>
<wgt id='1297'> +2.8205821e+11 </wgt>
<wgt id='1298'> +2.9480907e+11 </wgt>
<wgt id='1299'> +3.1078237e+11 </wgt>
<wgt id='1300'> +2.6158712e+11 </wgt>
<wgt id='1301'> +2.7790777e+11 </wgt>
<wgt id='1302'> +2.7621013e+11 </wgt>
<wgt id='1303'> +3.1450024e+11 </wgt>
<wgt id='1304'> +3.5685466e+11 </wgt>
<wgt id='1305'> +2.9640561e+11 </wgt>
<wgt id='1306'> +3.0757182e+11 </wgt>
<wgt id='1307'> +2.7179868e+11 </wgt>
<wgt id='1308'> +3.4252511e+11 </wgt>
<wgt id='1309'> +3.1333816e+11 </wgt>
<wgt id='1310'> +3.0920596e+11 </wgt>
<wgt id='1311'> +2.8909798e+11 </wgt>
<wgt id='1312'> +3.4853645e+11 </wgt>
<wgt id='1313'> +3.2096244e+11 </wgt>
<wgt id='1314'> +2.7849412e+11 </wgt>
<wgt id='1315'> +2.8535665e+11 </wgt>
<wgt id='1316'> +3.0126257e+11 </wgt>
<wgt id='1317'> +3.4358534e+11 </wgt>
<wgt id='1318'> +2.9185352e+11 </wgt>
<wgt id='1319'> +3.0579084e+11 </wgt>
<wgt id='1320'> +3.2932161e+11 </wgt>
<wgt id='1321'> +3.1755954e+11 </wgt>
<wgt id='1322'> +3.3101116e+11 </wgt>
<wgt id='1323'> +2.7089494e+11 </wgt>
<wgt id='1324'> +3.2581589e+11 </wgt>
<wgt id='1325'> +3.1929389e+11 </wgt>
<wgt id='1326'> +3.1934248e+11 </wgt>
<wgt id='1327'> +3.3368395e+11 </wgt>
<wgt id='1328'> +3.1509763e+11 </wgt>
<wgt id='1329'> +2.9401974e+11 </wgt>
<wgt id='1330'> +2.7728022e+11 </wgt>
<wgt id='1331'> +3.3187518e+11 </wgt>
<wgt id='1332'> +3.1783520e+11 </wgt>
<wgt id='1333'> +3.0468607e+11 </wgt>
<wgt id='1334'> +3.3859555e+11 </wgt>
<wgt id='1335'> +2.8108443e+11 </wgt>
<wgt id='1336'> +3.4498373e+11 </wgt>
<wgt id='1337'> +3.1386538e+11 </wgt>
<wgt id='1338'> +2.8198418e+11 </wgt>
<wgt id='1339'> +3.0136747e+11 </wgt>
<wgt id='1340'> +3.3781501e+11 </wgt>
<wgt id='1341'> +3.7147931e+11 </wgt>
<wgt id='1342'> +2.8672035e+11 </wgt>
<wgt id='1343'> +3.1243812e+11 </wgt>
<wgt id='1344'> +3.3412300e+11 </wgt>
<wgt id='1345'> +2.3599851e+11 </wgt>
<wgt id='1346'> +3.0901562e+11 </wgt>
<wgt id='1347'> +3.0619647e+11 </wgt>
<wgt id='1348'> +2.8975841e+11 </wgt>
<wgt id='1349'> +2.9420440e+11 </wgt>
<wgt id='1350'> +3.3983756e+11 </wgt>
<wgt id='1351'> +2.8733950e+11 </wgt>
<wgt id='1352'> +3.1167663e+11 </wgt>
<wgt id='1353'> +3.1241232e+11 </wgt>
<wgt id='1354'> +3.1886627e+11 </wgt>
<wgt id='1355'> +2.8487608e+11 </wgt>
<wgt id='1356'> +2.8742630e+11 </wgt>
<wgt id='1357'> +2.8790016e+11 </wgt>
<wgt id='1358'> +2.8271272e+11 </wgt>
<wgt id='1359'> +2.8211909e+11 </wgt>
<wgt id='1360'> +2.7961552e+11 </wgt>
<wgt id='1361'> +2.8322986e+11 </wgt>
<wgt id='1362'> +2.9428783e+11 </wgt>
<wgt id='1363'> +2.8475915e+11 </wgt>
<wgt id='1364'> +2.9884114e+11 </wgt>
<wgt id='1365'> +2.8222638e+11 </wgt>
<wgt id='1366'> +2.8261147e+11 </wgt>
<wgt id='1367'> +2.7951473e+11 </wgt>
<wgt id='1368'> +2.8923844e+11 </wgt>
<wgt id='1369'> +2.8814481e+11 </wgt>
<wgt id='1370'> +2.7568331e+11 </wgt>
<wgt id='1371'> +2.8047885e+11 </wgt>
<wgt id='1372'> +2.7924686e+11 </wgt>
<wgt id='1373'> +2.9210072e+11 </wgt>
<wgt id='1374'> +2.8349384e+11 </wgt>
<wgt id='1375'> +2.8729728e+11 </wgt>
<wgt id='1376'> +2.8559126e+11 </wgt>
<wgt id='1377'> +2.8350655e+11 </wgt>
<wgt id='1378'> +2.9046382e+11 </wgt>
<wgt id='1379'> +2.8194537e+11 </wgt>
<wgt id='1380'> +2.8224846e+11 </wgt>
<wgt id='1381'> +2.8831627e+11 </wgt>
<wgt id='1382'> +2.8044886e+11 </wgt>
<wgt id='1383'> +2.8106785e+11 </wgt>
<wgt id='1384'> +2.7551037e+11 </wgt>
<wgt id='1385'> +2.7885853e+11 </wgt>
<wgt id='1386'> +2.8044931e+11 </wgt>
<wgt id='1387'> +2.8514584e+11 </wgt>
<wgt id='1388'> +2.8225472e+11 </wgt>
<wgt id='1389'> +2.7970912e+11 </wgt>
<wgt id='1390'> +2.8849609e+11 </wgt>
<wgt id='1391'> +2.9031195e+11 </wgt>
<wgt id='1392'> +2.7554243e+11 </wgt>
<wgt id='1393'> +2.8929119e+11 </wgt>
<wgt id='1394'> +2.8795550e+11 </wgt>
<wgt id='1395'> +2.7662277e+11 </wgt>
<wgt id='1396'> +2.8490329e+11 </wgt>
<wgt id='1397'> +2.8360437e+11 </wgt>
<wgt id='1398'> +2.9555099e+11 </wgt>
<wgt id='1399'> +2.8206879e+11 </wgt>
<wgt id='1400'> +2.7799355e+11 </wgt>
<wgt id='1401'> +2.8269222e+11 </wgt>
<wgt id='1402'> +2.8670368e+11 </wgt>
<wgt id='1403'> +2.9910350e+11 </wgt>
<wgt id='1404'> +2.8949344e+11 </wgt>
<wgt id='1405'> +2.9765186e+11 </wgt>
<wgt id='1406'> +2.9224058e+11 </wgt>
<wgt id='1407'> +2.9168755e+11 </wgt>
<wgt id='1408'> +2.9910353e+11 </wgt>
<wgt id='1409'> +2.7711026e+11 </wgt>
<wgt id='1410'> +2.7881407e+11 </wgt>
<wgt id='1411'> +2.8429899e+11 </wgt>
<wgt id='1412'> +2.9133792e+11 </wgt>
<wgt id='1413'> +2.9368522e+11 </wgt>
<wgt id='1414'> +2.8788650e+11 </wgt>
<wgt id='1415'> +2.7763916e+11 </wgt>
<wgt id='1416'> +2.8420237e+11 </wgt>
<wgt id='1417'> +2.8088420e+11 </wgt>
<wgt id='1418'> +2.8195186e+11 </wgt>
<wgt id='1419'> +2.8651475e+11 </wgt>
<wgt id='1420'> +2.7109600e+11 </wgt>
<wgt id='1421'> +2.9447475e+11 </wgt>
<wgt id='1422'> +2.7385677e+11 </wgt>
<wgt id='1423'> +2.8610866e+11 </wgt>
<wgt id='1424'> +2.8147297e+11 </wgt>
<wgt id='1425'> +2.8340303e+11 </wgt>
<wgt id='1426'> +2.9023255e+11 </wgt>
<wgt id='1427'> +2.8042120e+11 </wgt>
<wgt id='1428'> +2.7921558e+11 </wgt>
<wgt id='1429'> +2.8546207e+11 </wgt>
<wgt id='1430'> +2.8101627e+11 </wgt>
<wgt id='1431'> +2.8760419e+11 </wgt>
<wgt id='1432'> +2.7555996e+11 </wgt>
<wgt id='1433'> +2.7525673e+11 </wgt>
<wgt id='1434'> +2.8650901e+11 </wgt>
<wgt id='1435'> +2.8696755e+11 </wgt>
<wgt id='1436'> +2.8811127e+11 </wgt>
<wgt id='1437'> +2.8239190e+11 </wgt>
<wgt id='1438'> +2.8423512e+11 </wgt>
<wgt id='1439'> +2.9505065e+11 </wgt>
<wgt id='1440'> +2.8361454e+11 </wgt>
<wgt id='1441'> +2.8022954e+11 </wgt>
<wgt id='1442'> +2.8460263e+11 </wgt>
<wgt id='1443'> +2.7741669e+11 </wgt>
<wgt id='1444'> +2.9651883e+11 </wgt>
<wgt id='1445'> +2.7981285e+11 </wgt>
<wgt id='1446'> +2.9945569e+11 </wgt>
<wgt id='1447'> +2.8979772e+11 </wgt>
<wgt id='1448'> +2.8837828e+11 </wgt>
<wgt id='1449'> +2.8635599e+11 </wgt>
<wgt id='1450'> +2.8189791e+11 </wgt>
<wgt id='1451'> +2.8020988e+11 </wgt>
<wgt id='1452'> +2.8875295e+11 </wgt>
<wgt id='1453'> +2.9235830e+11 </wgt>
<wgt id='1454'> +2.7459007e+11 </wgt>
<wgt id='1455'> +2.8357712e+11 </wgt>
<wgt id='1456'> +2.8156865e+11 </wgt>
<wgt id='1457'> +2.8669572e+11 </wgt>
<wgt id='1458'> +2.9545759e+11 </wgt>
<wgt id='1459'> +3.1589799e+11 </wgt>
<wgt id='1460'> +3.0996397e+11 </wgt>
<wgt id='1461'> +3.7986617e+11 </wgt>
<wgt id='1462'> +3.0945500e+11 </wgt>
<wgt id='1463'> +3.0966432e+11 </wgt>
<wgt id='1464'> +3.0918653e+11 </wgt>
<wgt id='1465'> +3.0952927e+11 </wgt>
<wgt id='1466'> +3.0938716e+11 </wgt>
<wgt id='1467'> +3.0953977e+11 </wgt>
<wgt id='1468'> +3.0931590e+11 </wgt>
<wgt id='1469'> +3.0901772e+11 </wgt>
<wgt id='1470'> +3.0981009e+11 </wgt>
<wgt id='1471'> +3.0989792e+11 </wgt>
<wgt id='1472'> +3.0899877e+11 </wgt>
<wgt id='1473'> +3.1072347e+11 </wgt>
<wgt id='1474'> +3.0823655e+11 </wgt>
<wgt id='1475'> +3.1063834e+11 </wgt>
<wgt id='1476'> +3.0861638e+11 </wgt>
<wgt id='1477'> +3.0890490e+11 </wgt>
<wgt id='1478'> +3.1074055e+11 </wgt>
<wgt id='1479'> +3.0925721e+11 </wgt>
<wgt id='1480'> +3.0960133e+11 </wgt>
<wgt id='1481'> +3.0869098e+11 </wgt>
<wgt id='1482'> +3.1049184e+11 </wgt>
<wgt id='1483'> +3.0947022e+11 </wgt>
<wgt id='1484'> +3.0944241e+11 </wgt>
<wgt id='1485'> +3.0964799e+11 </wgt>
<wgt id='1486'> +3.0898967e+11 </wgt>
<wgt id='1487'> +3.0972431e+11 </wgt>
<wgt id='1488'> +3.0911489e+11 </wgt>
<wgt id='1489'> +3.0905068e+11 </wgt>
<wgt id='1490'> +3.1055193e+11 </wgt>
<wgt id='1491'> +3.1486740e+11 </wgt>
<wgt id='1492'> +3.0644176e+11 </wgt>
<wgt id='1493'> +3.0553290e+11 </wgt>
<wgt id='1494'> +3.2175575e+11 </wgt>
<wgt id='1495'> +3.0838247e+11 </wgt>
<wgt id='1496'> +3.1060828e+11 </wgt>
<wgt id='1497'> +3.0971143e+11 </wgt>
<wgt id='1498'> +3.0910581e+11 </wgt>
<wgt id='1499'> +3.1192898e+11 </wgt>
<wgt id='1500'> +3.0810734e+11 </wgt>
<wgt id='1501'> +3.0956915e+11 </wgt>
<wgt id='1502'> +3.0917947e+11 </wgt>
<wgt id='1503'> +3.0328010e+11 </wgt>
<wgt id='1504'> +3.1662060e+11 </wgt>
<wgt id='1505'> +3.0973691e+11 </wgt>
<wgt id='1506'> +3.0917568e+11 </wgt>
<wgt id='1507'> +3.1527509e+11 </wgt>
<wgt id='1508'> +2.9877170e+11 </wgt>
<wgt id='1509'> +3.1051462e+11 </wgt>
<wgt id='1510'> +3.0486556e+11 </wgt>
<wgt id='1511'> +3.1065331e+11 </wgt>
<wgt id='1512'> +3.0930659e+11 </wgt>
<wgt id='1513'> +3.0909354e+11 </wgt>
<wgt id='1514'> +3.0987336e+11 </wgt>
<wgt id='1515'> +3.1535934e+11 </wgt>
<wgt id='1516'> +3.0762563e+11 </wgt>
<wgt id='1517'> +3.0864995e+11 </wgt>
<wgt id='1518'> +3.1086623e+11 </wgt>
<wgt id='1519'> +3.0704257e+11 </wgt>
<wgt id='1520'> +3.1115822e+11 </wgt>
<wgt id='1521'> +3.0765340e+11 </wgt>
<wgt id='1522'> +3.1044060e+11 </wgt>
<wgt id='1523'> +3.1080642e+11 </wgt>
<wgt id='1524'> +3.1128881e+11 </wgt>
<wgt id='1525'> +3.0975067e+11 </wgt>
<wgt id='1526'> +3.1164882e+11 </wgt>
<wgt id='1527'> +3.0945500e+11 </wgt>
<wgt id='1528'> +3.0686112e+11 </wgt>
<wgt id='1529'> +3.1205669e+11 </wgt>
<wgt id='1530'> +3.0152700e+11 </wgt>
<wgt id='1531'> +3.1895439e+11 </wgt>
<wgt id='1532'> +3.2120761e+11 </wgt>
<wgt id='1533'> +3.1260627e+11 </wgt>
<wgt id='1534'> +3.1664159e+11 </wgt>
<wgt id='1535'> +3.2306131e+11 </wgt>
<wgt id='1536'> +3.1389261e+11 </wgt>
<wgt id='1537'> +3.2353481e+11 </wgt>
<wgt id='1538'> +3.1389568e+11 </wgt>
<wgt id='1539'> +3.2418931e+11 </wgt>
<wgt id='1540'> +3.2232331e+11 </wgt>
<wgt id='1541'> +3.2172509e+11 </wgt>
<wgt id='1542'> +3.1977217e+11 </wgt>
<wgt id='1543'> +3.2196280e+11 </wgt>
<wgt id='1544'> +3.1698649e+11 </wgt>
<wgt id='1545'> +3.1705743e+11 </wgt>
<wgt id='1546'> +3.1539484e+11 </wgt>
<wgt id='1547'> +3.2113790e+11 </wgt>
<wgt id='1548'> +3.1849485e+11 </wgt>
<wgt id='1549'> +3.1532825e+11 </wgt>
<wgt id='1550'> +3.2233990e+11 </wgt>
<wgt id='1551'> +3.1965346e+11 </wgt>
<wgt id='1552'> +3.1961862e+11 </wgt>
<wgt id='1553'> +3.2822517e+11 </wgt>
<wgt id='1554'> +3.1972765e+11 </wgt>
<wgt id='1555'> +3.1995953e+11 </wgt>
<wgt id='1556'> +3.2102672e+11 </wgt>
<wgt id='1557'> +3.1886823e+11 </wgt>
<wgt id='1558'> +3.1917383e+11 </wgt>
<wgt id='1559'> +3.1666612e+11 </wgt>
<wgt id='1560'> +3.1868220e+11 </wgt>
<wgt id='1561'> +3.1794911e+11 </wgt>
<wgt id='1562'> +3.1591229e+11 </wgt>
<wgt id='1563'> +3.1941443e+11 </wgt>
<wgt id='1564'> +3.1861312e+11 </wgt>
<wgt id='1565'> +3.2349811e+11 </wgt>
<wgt id='1566'> +3.1892319e+11 </wgt>
<wgt id='1567'> +3.1734186e+11 </wgt>
<wgt id='1568'> +3.1874097e+11 </wgt>
<wgt id='1569'> +3.1821512e+11 </wgt>
<wgt id='1570'> +3.2653825e+11 </wgt>
<wgt id='1571'> +3.1879492e+11 </wgt>
<wgt id='1572'> +3.1926635e+11 </wgt>
<wgt id='1573'> +3.2534302e+11 </wgt>
<wgt id='1574'> +2.4349238e+11 </wgt>
<wgt id='1575'> +2.4355371e+11 </wgt>
<wgt id='1576'> +2.4342278e+11 </wgt>
<wgt id='1577'> +2.4350989e+11 </wgt>
<wgt id='1578'> +2.4405386e+11 </wgt>
<wgt id='1579'> +2.4422207e+11 </wgt>
<wgt id='1580'> +2.4398279e+11 </wgt>
<wgt id='1581'> +2.4316745e+11 </wgt>
<wgt id='1582'> +2.4293341e+11 </wgt>
<wgt id='1583'> +2.4299775e+11 </wgt>
<wgt id='1584'> +2.4404960e+11 </wgt>
<wgt id='1585'> +2.4382623e+11 </wgt>
<wgt id='1586'> +2.4289642e+11 </wgt>
<wgt id='1587'> +2.4295797e+11 </wgt>
<wgt id='1588'> +2.4256727e+11 </wgt>
<wgt id='1589'> +2.4309499e+11 </wgt>
<wgt id='1590'> +2.4335420e+11 </wgt>
<wgt id='1591'> +2.4357458e+11 </wgt>
<wgt id='1592'> +2.4258249e+11 </wgt>
<wgt id='1593'> +2.4223461e+11 </wgt>
<wgt id='1594'> +2.4475305e+11 </wgt>
<wgt id='1595'> +2.4075808e+11 </wgt>
<wgt id='1596'> +2.4822297e+11 </wgt>
<wgt id='1597'> +2.4531309e+11 </wgt>
<wgt id='1598'> +2.4533477e+11 </wgt>
<wgt id='1599'> +2.4029506e+11 </wgt>
<wgt id='1600'> +2.4872252e+11 </wgt>
<wgt id='1601'> +2.4564142e+11 </wgt>
<wgt id='1602'> +2.4365498e+11 </wgt>
<wgt id='1603'> +2.6027825e+11 </wgt>
<wgt id='1604'> +2.4343476e+11 </wgt>
</rwgt>
</event>
<event>
 9      1 +2.8343000e+11 1.39999000e+03 7.81738600e-03 7.88881800e-02
       21 -1    0    0  504  503 +0.0000000000e+00 +0.0000000000e+00 +6.0912608404e+02 6.0912608404e+02 0.0000000000e+00 0.0000e+00 -1.0000e+00
       21 -1    0    0  503  504 -0.0000000000e+00 -0.0000000000e+00 -8.0441923651e+02 8.0441923651e+02 0.0000000000e+00 0.0000e+00 -1.0000e+00
       45  2    1    2    0    0 -1.1368683772e-13 -2.8421709430e-14 -1.9529315247e+02 1.4135453206e+03 1.3999896278e+03 0.0000e+00 0.0000e+00
       25  2    3    3    0    0 -6.5094825455e+02 -2.3148191165e+02 -1.2690839844e+02 7.1347809956e+02 1.2501100525e+02 0.0000e+00 0.0000e+00
       35  2    3    3    0    0 +6.5094825455e+02 +2.3148191165e+02 -6.8384754024e+01 7.0006722099e+02 9.0000743269e+01 0.0000e+00 0.0000e+00
        5  1    5    5  501    0 +9.6797287504e+01 +2.6150272086e+01 -4.1123253257e+01 1.0845474334e+02 4.2140000000e+00 0.0000e+00 1.0000e+00
       -5  1    5    5    0  501 +5.5415096705e+02 +2.0533163956e+02 -2.7261500768e+01 5.9161247765e+02 4.2140000000e+00 0.0000e+00 1.0000e+00
        5  1    4    4  502    0 -3.6467490897e+02 -1.7183311447e+02 -2.5557474120e+01 4.0396206597e+02 4.2140000000e+00 0.0000e+00 1.0000e+00
       -5  1    4    4    0  502 -2.8627334558e+02 -5.9648797181e+01 -1.0135092432e+02 3.0951603359e+02 4.2140000000e+00 0.0000e+00 1.0000e+00
<mgrwt>
<rscale>  0 0.13999896E+04</rscale>
<asrwt>0</asrwt>
<pdfrwt beam="1">  1       21 0.93711705E-01 0.13999896E+04</pdfrwt>
<pdfrwt beam="2">  1       21 0.12375681E+00 0.13999896E+04</pdfrwt>
<totfact> 0.35279700E+02</totfact>
</mgrwt>
<rwgt>
<wgt id='1001'> +2.8343000e+11 </wgt>
<wgt id='1002'> +2.8385258e+11 </wgt>
<wgt id='1003'> +2.8385206e+11 </wgt>
<wgt id='1004'> +3.1826132e+11 </wgt>
<wgt id='1005'> +2.8343000e+11 </wgt>
<wgt id='1006'> +2.8343000e+11 </wgt>
<wgt id='1007'> +2.8385258e+11 </wgt>
<wgt id='1008'> +2.8385206e+11 </wgt>
<wgt id='1009'> +3.1826132e+11 </wgt>
<wgt id='1010'> +2.8343000e+11 </wgt>
<wgt id='1011'> +2.8343000e+11 </wgt>
<wgt id='1012'> +2.8385258e+11 </wgt>
<wgt id='1013'> +2.8385206e+11 </wgt>
<wgt id='1014'> +3.1826132e+11 </wgt>
<wgt id='1015'> +2.8343000e+11 </wgt>
<wgt id='1016'> +2.5463282e+11 </wgt>
<wgt id='1017'> +2.5499096e+11 </wgt>
<wgt id='1018'> +2.5499052e+11 </wgt>
<wgt id='1019'> +2.8385206e+11 </wgt>
<wgt id='1020'> +2.5463282e+11 </wgt>
<wgt id='1021'> +2.5463282e+11 </wgt>
<wgt id='1022'> +2.5499096e+11 </wgt>
<wgt id='1023'> +2.5499052e+11 </wgt>
<wgt id='1024'> +2.8385206e+11 </wgt>
<wgt id='1025'> +2.5463282e+11 </wgt>
<wgt id='1026'> +2.5463282e+11 </wgt>
<wgt id='1027'> +2.5499096e+11 </wgt>
<wgt id='1028'> +2.5499052e+11 </wgt>
<wgt id='1029'> +2.8385206e+11 </wgt>
<wgt id='1030'> +2.5463282e+11 </wgt>
<wgt id='1031'> +3.1775487e+11 </wgt>
<wgt id='1032'> +3.1826195e+11 </wgt>
<wgt id='1033'> +3.1826132e+11 </wgt>
<wgt id='1034'> +3.5962430e+11 </wgt>
<wgt id='1035'> +3.1775487e+11 </wgt>
<wgt id='1036'> +3.1775487e+11 </wgt>
<wgt id='1037'> +3.1826195e+11 </wgt>
<wgt id='1038'> +3.1826132e+11 </wgt>
<wgt id='1039'> +3.5962430e+11 </wgt>
<wgt id='1040'> +3.1775487e+11 </wgt>
<wgt id='1041'> +3.1775487e+11 </wgt>
<wgt id='1042'> +3.1826195e+11 </wgt>
<wgt id='1043'> +3.1826132e+11 </wgt>
<wgt id='1044'> +3.5962430e+11 </wgt>
<wgt id='1045'> +3.1775487e+11 </wgt>
<wgt id='1046'> +2.8343000e+11 </wgt>
<wgt id='1047'> +2.8343000e+11 </wgt>
<wgt id='1048'> +2.8343000e+11 </wgt>
<wgt id='1049'> +2.8232176e+11 </wgt>
<wgt id='1050'> +2.8307718e+11 </wgt>
<wgt id='1051'> +2.8368779e+11 </wgt>
<wgt id='1052'> +2.8423332e+11 </wgt>
<wgt id='1053'> +2.8187548e+11 </wgt>
<wgt id='1054'> +2.8386515e+11 </wgt>
<wgt id='1055'> +2.8225240e+11 </wgt>
<wgt id='1056'> +2.8185535e+11 </wgt>
<wgt id='1057'> +2.8415535e+11 </wgt>
<wgt id='1058'> +2.8303483e+11 </wgt>
<wgt id='1059'> +2.8539909e+11 </wgt>
<wgt id='1060'> +2.8365785e+11 </wgt>
<wgt id='1061'> +2.8417088e+11 </wgt>
<wgt id='1062'> +2.8403387e+11 </wgt>
<wgt id='1063'> +2.8373476e+11 </wgt>
<wgt id='1064'> +2.8462777e+11 </wgt>
<wgt id='1065'> +2.8484892e+11 </wgt>
<wgt id='1066'> +2.8189237e+11 </wgt>
<wgt id='1067'> +2.7987773e+11 </wgt>
<wgt id='1068'> +2.8374935e+11 </wgt>
<wgt id='1069'> +2.8273366e+11 </wgt>
<wgt id='1070'> +2.8349636e+11 </wgt>
<wgt id='1071'> +2.8473149e+11 </wgt>
<wgt id='1072'> +2.8118319e+11 </wgt>
<wgt id='1073'> +2.8407050e+11 </wgt>
<wgt id='1074'> +2.8313117e+11 </wgt>
<wgt id='1075'> +2.8443224e+11 </wgt>
<wgt id='1076'> +2.8301665e+11 </wgt>
<wgt id='1077'> +2.8284506e+11 </wgt>
<wgt id='1078'> +2.8410520e+11 </wgt>
<wgt id='1079'> +2.8184243e+11 </wgt>
<wgt id='1080'> +2.8282751e+11 </wgt>
<wgt id='1081'> +2.8300051e+11 </wgt>
<wgt id='1082'> +2.8206072e+11 </wgt>
<wgt id='1083'> +2.8397639e+11 </wgt>
<wgt id='1084'> +2.8406412e+11 </wgt>
<wgt id='1085'> +2.8284549e+11 </wgt>
<wgt id='1086'> +2.8284641e+11 </wgt>
<wgt id='1087'> +2.8308473e+11 </wgt>
<wgt id='1088'> +2.8294605e+11 </wgt>
<wgt id='1089'> +2.8279596e+11 </wgt>
<wgt id='1090'> +2.8414031e+11 </wgt>
<wgt id='1091'> +2.8350599e+11 </wgt>
<wgt id='1092'> +2.8367835e+11 </wgt>
<wgt id='1093'> +2.8331631e+11 </wgt>
<wgt id='1094'> +2.8288222e+11 </wgt>
<wgt id='1095'> +2.8355183e+11 </wgt>
<wgt id='1096'> +2.8336345e+11 </wgt>
<wgt id='1097'> +2.8302718e+11 </wgt>
<wgt id='1098'> +2.8307753e+11 </wgt>
<wgt id='1099'> +2.8321142e+11 </wgt>
<wgt id='1100'> +2.8401451e+11 </wgt>
<wgt id='1101'> +2.8340518e+11 </wgt>
<wgt id='1102'> +2.8327948e+11 </wgt>
<wgt id='1103'> +2.8310788e+11 </wgt>
<wgt id='1104'> +2.8310611e+11 </wgt>
<wgt id='1105'> +2.8354347e+11 </wgt>
<wgt id='1106'> +2.8375287e+11 </wgt>
<wgt id='1107'> +2.8332865e+11 </wgt>
<wgt id='1108'> +2.8334002e+11 </wgt>
<wgt id='1109'> +2.8322884e+11 </wgt>
<wgt id='1110'> +2.8375899e+11 </wgt>
<wgt id='1111'> +2.8355992e+11 </wgt>
<wgt id='1112'> +2.8339892e+11 </wgt>
<wgt id='1113'> +2.8374139e+11 </wgt>
<wgt id='1114'> +2.8311343e+11 </wgt>
<wgt id='1115'> +2.8324357e+11 </wgt>
<wgt id='1116'> +2.8374810e+11 </wgt>
<wgt id='1117'> +2.8336939e+11 </wgt>
<wgt id='1118'> +2.8353015e+11 </wgt>
<wgt id='1119'> +2.8325036e+11 </wgt>
<wgt id='1120'> +2.8327815e+11 </wgt>
<wgt id='1121'> +2.8348898e+11 </wgt>
<wgt id='1122'> +2.8322757e+11 </wgt>
<wgt id='1123'> +2.8337586e+11 </wgt>
<wgt id='1124'> +2.8335185e+11 </wgt>
<wgt id='1125'> +2.8358828e+11 </wgt>
<wgt id='1126'> +2.8353620e+11 </wgt>
<wgt id='1127'> +2.8332258e+11 </wgt>
<wgt id='1128'> +2.8346849e+11 </wgt>
<wgt id='1129'> +2.8338166e+11 </wgt>
<wgt id='1130'> +2.8346019e+11 </wgt>
<wgt id='1131'> +2.8370406e+11 </wgt>
<wgt id='1132'> +2.8335018e+11 </wgt>
<wgt id='1133'> +2.8350713e+11 </wgt>
<wgt id='1134'> +2.8340895e+11 </wgt>
<wgt id='1135'> +2.8347101e+11 </wgt>
<wgt id='1136'> +2.8339298e+11 </wgt>
<wgt id='1137'> +2.8328246e+11 </wgt>
<wgt id='1138'> +2.8354473e+11 </wgt>
<wgt id='1139'> +2.8346950e+11 </wgt>
<wgt id='1140'> +2.8363942e+11 </wgt>
<wgt id='1141'> +2.8329857e+11 </wgt>
<wgt id='1142'> +2.8350259e+11 </wgt>
<wgt id='1143'> +2.8359787e+11 </wgt>
<wgt id='1144'> +2.8334355e+11 </wgt>
<wgt id='1145'> +2.8355559e+11 </wgt>
<wgt id='1146'> +2.8341336e+11 </wgt>
<wgt id='1147'> +2.8347822e+11 </wgt>
<wgt id='1148'> +2.8343000e+11 </wgt>
<wgt id='1149'> +2.8343000e+11 </wgt>
<wgt id='1150'> +2.9193041e+11 </wgt>
<wgt id='1151'> +2.8090522e+11 </wgt>
<wgt id='1152'> +2.8456631e+11 </wgt>
<wgt id='1153'> +2.8756612e+11 </wgt>
<wgt id='1154'> +2.8709504e+11 </wgt>
<wgt id='1155'> +2.8867974e+11 </wgt>
<wgt id='1156'> +2.7663494e+11 </wgt>
<wgt id='1157'> +2.7639976e+11 </wgt>
<wgt id='1158'> +2.7757338e+11 </wgt>
<wgt id='1159'> +2.9655663e+11 </wgt>
<wgt id='1160'> +2.8182117e+11 </wgt>
<wgt id='1161'> +2.8552069e+11 </wgt>
<wgt id='1162'> +2.7714577e+11 </wgt>
<wgt id='1163'> +2.8675466e+11 </wgt>
<wgt id='1164'> +2.6782269e+11 </wgt>
<wgt id='1165'> +2.7910017e+11 </wgt>
<wgt id='1166'> +2.8483383e+11 </wgt>
<wgt id='1167'> +2.7973604e+11 </wgt>
<wgt id='1168'> +2.7638777e+11 </wgt>
<wgt id='1169'> +2.7590930e+11 </wgt>
<wgt id='1170'> +2.7672192e+11 </wgt>
<wgt id='1171'> +2.7338250e+11 </wgt>
<wgt id='1172'> +2.7735758e+11 </wgt>
<wgt id='1173'> +2.8775089e+11 </wgt>
<wgt id='1174'> +2.7942983e+11 </wgt>
<wgt id='1175'> +2.7545849e+11 </wgt>
<wgt id='1176'> +2.8636234e+11 </wgt>
<wgt id='1177'> +2.7910501e+11 </wgt>
<wgt id='1178'> +2.8311773e+11 </wgt>
<wgt id='1179'> +2.8035360e+11 </wgt>
<wgt id='1180'> +2.8466370e+11 </wgt>
<wgt id='1181'> +2.7740209e+11 </wgt>
<wgt id='1182'> +2.8145873e+11 </wgt>
<wgt id='1183'> +2.9532382e+11 </wgt>
<wgt id='1184'> +2.7738031e+11 </wgt>
<wgt id='1185'> +2.8170274e+11 </wgt>
<wgt id='1186'> +2.7211564e+11 </wgt>
<wgt id='1187'> +2.8556972e+11 </wgt>
<wgt id='1188'> +2.7838768e+11 </wgt>
<wgt id='1189'> +2.8531016e+11 </wgt>
<wgt id='1190'> +2.8398822e+11 </wgt>
<wgt id='1191'> +2.9484550e+11 </wgt>
<wgt id='1192'> +2.9162035e+11 </wgt>
<wgt id='1193'> +2.9507547e+11 </wgt>
<wgt id='1194'> +2.8435801e+11 </wgt>
<wgt id='1195'> +2.8372907e+11 </wgt>
<wgt id='1196'> +2.9229439e+11 </wgt>
<wgt id='1197'> +2.9382937e+11 </wgt>
<wgt id='1198'> +2.7600188e+11 </wgt>
<wgt id='1199'> +2.8255561e+11 </wgt>
<wgt id='1200'> +2.8261409e+11 </wgt>
<wgt id='1201'> +2.7934885e+11 </wgt>
<wgt id='1202'> +2.8851378e+11 </wgt>
<wgt id='1203'> +2.7781160e+11 </wgt>
<wgt id='1204'> +2.8793312e+11 </wgt>
<wgt id='1205'> +2.8494230e+11 </wgt>
<wgt id='1206'> +2.7669100e+11 </wgt>
<wgt id='1207'> +2.9295931e+11 </wgt>
<wgt id='1208'> +2.7263527e+11 </wgt>
<wgt id='1209'> +2.7896122e+11 </wgt>
<wgt id='1210'> +2.8061338e+11 </wgt>
<wgt id='1211'> +2.8575610e+11 </wgt>
<wgt id='1212'> +2.8359506e+11 </wgt>
<wgt id='1213'> +2.9314331e+11 </wgt>
<wgt id='1214'> +2.7576442e+11 </wgt>
<wgt id='1215'> +2.9159396e+11 </wgt>
<wgt id='1216'> +2.8587491e+11 </wgt>
<wgt id='1217'> +2.7596073e+11 </wgt>
<wgt id='1218'> +2.8475648e+11 </wgt>
<wgt id='1219'> +2.9433624e+11 </wgt>
<wgt id='1220'> +2.7720581e+11 </wgt>
<wgt id='1221'> +2.7511785e+11 </wgt>
<wgt id='1222'> +2.8023330e+11 </wgt>
<wgt id='1223'> +2.7260921e+11 </wgt>
<wgt id='1224'> +2.8349000e+11 </wgt>
<wgt id='1225'> +2.8816362e+11 </wgt>
<wgt id='1226'> +2.9038133e+11 </wgt>
<wgt id='1227'> +2.7351128e+11 </wgt>
<wgt id='1228'> +2.8141676e+11 </wgt>
<wgt id='1229'> +3.0276433e+11 </wgt>
<wgt id='1230'> +2.9387866e+11 </wgt>
<wgt id='1231'> +2.7910017e+11 </wgt>
<wgt id='1232'> +2.8895648e+11 </wgt>
<wgt id='1233'> +2.7799932e+11 </wgt>
<wgt id='1234'> +2.7634575e+11 </wgt>
<wgt id='1235'> +3.0274842e+11 </wgt>
<wgt id='1236'> +2.7660298e+11 </wgt>
<wgt id='1237'> +2.8971294e+11 </wgt>
<wgt id='1238'> +2.8919771e+11 </wgt>
<wgt id='1239'> +2.9161693e+11 </wgt>
<wgt id='1240'> +2.8507517e+11 </wgt>
<wgt id='1241'> +2.8214316e+11 </wgt>
<wgt id='1242'> +2.8064843e+11 </wgt>
<wgt id='1243'> +2.8873748e+11 </wgt>
<wgt id='1244'> +2.8140791e+11 </wgt>
<wgt id='1245'> +2.8166006e+11 </wgt>
<wgt id='1246'> +3.0706139e+11 </wgt>
<wgt id='1247'> +2.8351611e+11 </wgt>
<wgt id='1248'> +2.7517224e+11 </wgt>
<wgt id='1249'> +2.7748982e+11 </wgt>
<wgt id='1250'> +2.9214638e+11 </wgt>
<wgt id='1251'> +2.9859316e+11 </wgt>
<wgt id='1252'> +2.8698929e+11 </wgt>
<wgt id='1253'> +2.8522268e+11 </wgt>
<wgt id='1254'> +2.8841781e+11 </wgt>
<wgt id='1255'> +2.9798337e+11 </wgt>
<wgt id='1256'> +2.9559109e+11 </wgt>
<wgt id='1257'> +2.8623889e+11 </wgt>
<wgt id='1258'> +2.9965078e+11 </wgt>
<wgt id='1259'> +2.9477995e+11 </wgt>
<wgt id='1260'> +3.2528102e+11 </wgt>
<wgt id='1261'> +3.1354684e+11 </wgt>
<wgt id='1262'> +2.8957206e+11 </wgt>
<wgt id='1263'> +2.9661914e+11 </wgt>
<wgt id='1264'> +2.9850789e+11 </wgt>
<wgt id='1265'> +2.9829755e+11 </wgt>
<wgt id='1266'> +2.9450695e+11 </wgt>
<wgt id='1267'> +3.1658774e+11 </wgt>
<wgt id='1268'> +2.9377032e+11 </wgt>
<wgt id='1269'> +2.8697073e+11 </wgt>
<wgt id='1270'> +2.9173206e+11 </wgt>
<wgt id='1271'> +2.7859513e+11 </wgt>
<wgt id='1272'> +2.9309758e+11 </wgt>
<wgt id='1273'> +2.9158883e+11 </wgt>
<wgt id='1274'> +2.8731939e+11 </wgt>
<wgt id='1275'> +2.9811362e+11 </wgt>
<wgt id='1276'> +2.9551952e+11 </wgt>
<wgt id='1277'> +2.9087790e+11 </wgt>
<wgt id='1278'> +2.8707406e+11 </wgt>
<wgt id='1279'> +2.8092065e+11 </wgt>
<wgt id='1280'> +2.9317401e+11 </wgt>
<wgt id='1281'> +2.8553737e+11 </wgt>
<wgt id='1282'> +2.9634090e+11 </wgt>
<wgt id='1283'> +2.9643837e+11 </wgt>
<wgt id='1284'> +3.1434825e+11 </wgt>
<wgt id='1285'> +3.0797487e+11 </wgt>
<wgt id='1286'> +3.2848164e+11 </wgt>
<wgt id='1287'> +3.0308906e+11 </wgt>
<wgt id='1288'> +3.2369537e+11 </wgt>
<wgt id='1289'> +3.1280964e+11 </wgt>
<wgt id='1290'> +3.1122320e+11 </wgt>
<wgt id='1291'> +2.7767886e+11 </wgt>
<wgt id='1292'> +2.9740306e+11 </wgt>
<wgt id='1293'> +3.0009770e+11 </wgt>
<wgt id='1294'> +3.1441537e+11 </wgt>
<wgt id='1295'> +2.9872671e+11 </wgt>
<wgt id='1296'> +3.1559774e+11 </wgt>
<wgt id='1297'> +2.9514375e+11 </wgt>
<wgt id='1298'> +2.8750553e+11 </wgt>
<wgt id='1299'> +2.9857402e+11 </wgt>
<wgt id='1300'> +2.8787545e+11 </wgt>
<wgt id='1301'> +2.8053683e+11 </wgt>
<wgt id='1302'> +2.7613217e+11 </wgt>
<wgt id='1303'> +2.9831862e+11 </wgt>
<wgt id='1304'> +3.0651078e+11 </wgt>
<wgt id='1305'> +2.9812162e+11 </wgt>
<wgt id='1306'> +3.0500368e+11 </wgt>
<wgt id='1307'> +3.0289053e+11 </wgt>
<wgt id='1308'> +3.2528577e+11 </wgt>
<wgt id='1309'> +2.9571935e+11 </wgt>
<wgt id='1310'> +3.0197227e+11 </wgt>
<wgt id='1311'> +3.0739897e+11 </wgt>
<wgt id='1312'> +2.9925262e+11 </wgt>
<wgt id='1313'> +2.9687074e+11 </wgt>
<wgt id='1314'> +3.0359668e+11 </wgt>
<wgt id='1315'> +2.8479484e+11 </wgt>
<wgt id='1316'> +2.9838587e+11 </wgt>
<wgt id='1317'> +3.0136722e+11 </wgt>
<wgt id='1318'> +2.8651070e+11 </wgt>
<wgt id='1319'> +3.0694681e+11 </wgt>
<wgt id='1320'> +3.0911946e+11 </wgt>
<wgt id='1321'> +2.9365794e+11 </wgt>
<wgt id='1322'> +2.9769964e+11 </wgt>
<wgt id='1323'> +2.9811862e+11 </wgt>
<wgt id='1324'> +3.0117998e+11 </wgt>
<wgt id='1325'> +3.1074620e+11 </wgt>
<wgt id='1326'> +3.0289363e+11 </wgt>
<wgt id='1327'> +2.9400315e+11 </wgt>
<wgt id='1328'> +3.0203752e+11 </wgt>
<wgt id='1329'> +2.9754085e+11 </wgt>
<wgt id='1330'> +2.9029698e+11 </wgt>
<wgt id='1331'> +3.1912646e+11 </wgt>
<wgt id='1332'> +2.8612807e+11 </wgt>
<wgt id='1333'> +3.0043268e+11 </wgt>
<wgt id='1334'> +3.1369270e+11 </wgt>
<wgt id='1335'> +2.9232985e+11 </wgt>
<wgt id='1336'> +3.0253415e+11 </wgt>
<wgt id='1337'> +3.0826063e+11 </wgt>
<wgt id='1338'> +2.8953295e+11 </wgt>
<wgt id='1339'> +3.1994947e+11 </wgt>
<wgt id='1340'> +3.0150926e+11 </wgt>
<wgt id='1341'> +3.0511404e+11 </wgt>
<wgt id='1342'> +3.1491055e+11 </wgt>
<wgt id='1343'> +3.0994731e+11 </wgt>
<wgt id='1344'> +3.0373499e+11 </wgt>
<wgt id='1345'> +2.7926604e+11 </wgt>
<wgt id='1346'> +2.9943113e+11 </wgt>
<wgt id='1347'> +2.8672002e+11 </wgt>
<wgt id='1348'> +2.8775995e+11 </wgt>
<wgt id='1349'> +2.8940244e+11 </wgt>
<wgt id='1350'> +3.0043473e+11 </wgt>
<wgt id='1351'> +2.9634224e+11 </wgt>
<wgt id='1352'> +3.0035646e+11 </wgt>
<wgt id='1353'> +2.9703404e+11 </wgt>
<wgt id='1354'> +3.0673839e+11 </wgt>
<wgt id='1355'> +2.7570920e+11 </wgt>
<wgt id='1356'> +2.7845987e+11 </wgt>
<wgt id='1357'> +2.7654874e+11 </wgt>
<wgt id='1358'> +2.7315706e+11 </wgt>
<wgt id='1359'> +2.7643421e+11 </wgt>
<wgt id='1360'> +2.6901082e+11 </wgt>
<wgt id='1361'> +2.7570101e+11 </wgt>
<wgt id='1362'> +2.7778603e+11 </wgt>
<wgt id='1363'> +2.6969581e+11 </wgt>
<wgt id='1364'> +2.8187239e+11 </wgt>
<wgt id='1365'> +2.7338558e+11 </wgt>
<wgt id='1366'> +2.7566588e+11 </wgt>
<wgt id='1367'> +2.7654408e+11 </wgt>
<wgt id='1368'> +2.7576389e+11 </wgt>
<wgt id='1369'> +2.7987956e+11 </wgt>
<wgt id='1370'> +2.7384239e+11 </wgt>
<wgt id='1371'> +2.7355458e+11 </wgt>
<wgt id='1372'> +2.8013986e+11 </wgt>
<wgt id='1373'> +2.7932535e+11 </wgt>
<wgt id='1374'> +2.6760661e+11 </wgt>
<wgt id='1375'> +2.7469919e+11 </wgt>
<wgt id='1376'> +2.7652576e+11 </wgt>
<wgt id='1377'> +2.7569122e+11 </wgt>
<wgt id='1378'> +2.7165055e+11 </wgt>
<wgt id='1379'> +2.7417687e+11 </wgt>
<wgt id='1380'> +2.7407499e+11 </wgt>
<wgt id='1381'> +2.8101334e+11 </wgt>
<wgt id='1382'> +2.7531733e+11 </wgt>
<wgt id='1383'> +2.7557599e+11 </wgt>
<wgt id='1384'> +2.7400301e+11 </wgt>
<wgt id='1385'> +2.7413937e+11 </wgt>
<wgt id='1386'> +2.7753785e+11 </wgt>
<wgt id='1387'> +2.7467630e+11 </wgt>
<wgt id='1388'> +2.7194484e+11 </wgt>
<wgt id='1389'> +2.7407136e+11 </wgt>
<wgt id='1390'> +2.7478454e+11 </wgt>
<wgt id='1391'> +2.7345006e+11 </wgt>
<wgt id='1392'> +2.7354058e+11 </wgt>
<wgt id='1393'> +2.7379202e+11 </wgt>
<wgt id='1394'> +2.7344085e+11 </wgt>
<wgt id='1395'> +2.7142926e+11 </wgt>
<wgt id='1396'> +2.7672214e+11 </wgt>
<wgt id='1397'> +2.7633468e+11 </wgt>
<wgt id='1398'> +2.7637744e+11 </wgt>
<wgt id='1399'> +2.7140297e+11 </wgt>
<wgt id='1400'> +2.7269991e+11 </wgt>
<wgt id='1401'> +2.7431874e+11 </wgt>
<wgt id='1402'> +2.7894273e+11 </wgt>
<wgt id='1403'> +2.7895769e+11 </wgt>
<wgt id='1404'> +2.7369306e+11 </wgt>
<wgt id='1405'> +2.8182700e+11 </wgt>
<wgt id='1406'> +2.7553754e+11 </wgt>
<wgt id='1407'> +2.7638328e+11 </wgt>
<wgt id='1408'> +2.7895181e+11 </wgt>
<wgt id='1409'> +2.7354926e+11 </wgt>
<wgt id='1410'> +2.7318204e+11 </wgt>
<wgt id='1411'> +2.7539482e+11 </wgt>
<wgt id='1412'> +2.7452721e+11 </wgt>
<wgt id='1413'> +2.7264714e+11 </wgt>
<wgt id='1414'> +2.7747784e+11 </wgt>
<wgt id='1415'> +2.8139779e+11 </wgt>
<wgt id='1416'> +2.7881463e+11 </wgt>
<wgt id='1417'> +2.6914493e+11 </wgt>
<wgt id='1418'> +2.7730719e+11 </wgt>
<wgt id='1419'> +2.7927745e+11 </wgt>
<wgt id='1420'> +2.7491148e+11 </wgt>
<wgt id='1421'> +2.8176686e+11 </wgt>
<wgt id='1422'> +2.6818000e+11 </wgt>
<wgt id='1423'> +2.8094550e+11 </wgt>
<wgt id='1424'> +2.7675352e+11 </wgt>
<wgt id='1425'> +2.7595615e+11 </wgt>
<wgt id='1426'> +2.7918102e+11 </wgt>
<wgt id='1427'> +2.7565511e+11 </wgt>
<wgt id='1428'> +2.7554098e+11 </wgt>
<wgt id='1429'> +2.7174311e+11 </wgt>
<wgt id='1430'> +2.7100805e+11 </wgt>
<wgt id='1431'> +2.7096026e+11 </wgt>
<wgt id='1432'> +2.7752968e+11 </wgt>
<wgt id='1433'> +2.7624680e+11 </wgt>
<wgt id='1434'> +2.8246852e+11 </wgt>
<wgt id='1435'> +2.7482550e+11 </wgt>
<wgt id='1436'> +2.7982995e+11 </wgt>
<wgt id='1437'> +2.7828623e+11 </wgt>
<wgt id='1438'> +2.7380812e+11 </wgt>
<wgt id='1439'> +2.7656114e+11 </wgt>
<wgt id='1440'> +2.8022495e+11 </wgt>
<wgt id='1441'> +2.7550257e+11 </wgt>
<wgt id='1442'> +2.8323898e+11 </wgt>
<wgt id='1443'> +2.7386053e+11 </wgt>
<wgt id='1444'> +2.7418316e+11 </wgt>
<wgt id='1445'> +2.7859190e+11 </wgt>
<wgt id='1446'> +2.7808017e+11 </wgt>
<wgt id='1447'> +2.7177734e+11 </wgt>
<wgt id='1448'> +2.7807333e+11 </wgt>
<wgt id='1449'> +2.7714151e+11 </wgt>
<wgt id='1450'> +2.7389377e+11 </wgt>
<wgt id='1451'> +2.7698259e+11 </wgt>
<wgt id='1452'> +2.7883570e+11 </wgt>
<wgt id='1453'> +2.8055970e+11 </wgt>
<wgt id='1454'> +2.6902716e+11 </wgt>
<wgt id='1455'> +2.7493345e+11 </wgt>
<wgt id='1456'> +2.7493765e+11 </wgt>
<wgt id='1457'> +2.7449242e+11 </wgt>
<wgt id='1458'> +2.7770595e+11 </wgt>
<wgt id='1459'> +3.0515709e+11 </wgt>
<wgt id='1460'> +3.0047516e+11 </wgt>
<wgt id='1461'> +3.4793825e+11 </wgt>
<wgt id='1462'> +2.9975856e+11 </wgt>
<wgt id='1463'> +3.0000786e+11 </wgt>
<wgt id='1464'> +2.9943887e+11 </wgt>
<wgt id='1465'> +2.9982016e+11 </wgt>
<wgt id='1466'> +2.9970231e+11 </wgt>
<wgt id='1467'> +2.9992049e+11 </wgt>
<wgt id='1468'> +2.9949292e+11 </wgt>
<wgt id='1469'> +2.9930835e+11 </wgt>
<wgt id='1470'> +3.0012424e+11 </wgt>
<wgt id='1471'> +3.0023656e+11 </wgt>
<wgt id='1472'> +2.9926625e+11 </wgt>
<wgt id='1473'> +3.0091066e+11 </wgt>
<wgt id='1474'> +2.9865200e+11 </wgt>
<wgt id='1475'> +3.0085792e+11 </wgt>
<wgt id='1476'> +2.9897915e+11 </wgt>
<wgt id='1477'> +2.9918547e+11 </wgt>
<wgt id='1478'> +3.0109728e+11 </wgt>
<wgt id='1479'> +2.9918804e+11 </wgt>
<wgt id='1480'> +3.0015694e+11 </wgt>
<wgt id='1481'> +2.9933568e+11 </wgt>
<wgt id='1482'> +3.0032885e+11 </wgt>
<wgt id='1483'> +2.9985615e+11 </wgt>
<wgt id='1484'> +2.9962002e+11 </wgt>
<wgt id='1485'> +2.9996022e+11 </wgt>
<wgt id='1486'> +2.9927295e+11 </wgt>
<wgt id='1487'> +3.0000856e+11 </wgt>
<wgt id='1488'> +2.9944422e+11 </wgt>
<wgt id='1489'> +2.9940667e+11 </wgt>
<wgt id='1490'> +3.0071255e+11 </wgt>
<wgt id='1491'> +3.0468166e+11 </wgt>
<wgt id='1492'> +2.9701081e+11 </wgt>
<wgt id='1493'> +2.9625671e+11 </wgt>
<wgt id='1494'> +3.1073359e+11 </wgt>
<wgt id='1495'> +2.9912165e+11 </wgt>
<wgt id='1496'> +3.0044172e+11 </wgt>
<wgt id='1497'> +2.9995752e+11 </wgt>
<wgt id='1498'> +2.9948666e+11 </wgt>
<wgt id='1499'> +3.0162941e+11 </wgt>
<wgt id='1500'> +2.9873510e+11 </wgt>
<wgt id='1501'> +3.0022310e+11 </wgt>
<wgt id='1502'> +2.9852735e+11 </wgt>
<wgt id='1503'> +2.9661550e+11 </wgt>
<wgt id='1504'> +3.0309477e+11 </wgt>
<wgt id='1505'> +3.0078308e+11 </wgt>
<wgt id='1506'> +2.9877423e+11 </wgt>
<wgt id='1507'> +3.0107944e+11 </wgt>
<wgt id='1508'> +2.9898733e+11 </wgt>
<wgt id='1509'> +3.0033411e+11 </wgt>
<wgt id='1510'> +2.9728848e+11 </wgt>
<wgt id='1511'> +3.0086875e+11 </wgt>
<wgt id='1512'> +2.9944438e+11 </wgt>
<wgt id='1513'> +2.9967908e+11 </wgt>
<wgt id='1514'> +2.9983146e+11 </wgt>
<wgt id='1515'> +3.0217657e+11 </wgt>
<wgt id='1516'> +3.0021276e+11 </wgt>
<wgt id='1517'> +2.9938519e+11 </wgt>
<wgt id='1518'> +3.0006700e+11 </wgt>
<wgt id='1519'> +2.9812893e+11 </wgt>
<wgt id='1520'> +3.0091841e+11 </wgt>
<wgt id='1521'> +2.9898955e+11 </wgt>
<wgt id='1522'> +3.0021998e+11 </wgt>
<wgt id='1523'> +3.0112264e+11 </wgt>
<wgt id='1524'> +3.0111635e+11 </wgt>
<wgt id='1525'> +3.0099440e+11 </wgt>
<wgt id='1526'> +3.0054212e+11 </wgt>
<wgt id='1527'> +2.9975856e+11 </wgt>
<wgt id='1528'> +2.9957520e+11 </wgt>
<wgt id='1529'> +2.9941561e+11 </wgt>
<wgt id='1530'> +2.9565959e+11 </wgt>
<wgt id='1531'> +2.9649696e+11 </wgt>
<wgt id='1532'> +2.9410938e+11 </wgt>
<wgt id='1533'> +2.9206428e+11 </wgt>
<wgt id='1534'> +2.9487891e+11 </wgt>
<wgt id='1535'> +2.9896823e+11 </wgt>
<wgt id='1536'> +2.9350675e+11 </wgt>
<wgt id='1537'> +2.9639463e+11 </wgt>
<wgt id='1538'> +2.9333404e+11 </wgt>
<wgt id='1539'> +3.0268735e+11 </wgt>
<wgt id='1540'> +2.9566925e+11 </wgt>
<wgt id='1541'> +2.9668591e+11 </wgt>
<wgt id='1542'> +2.9641407e+11 </wgt>
<wgt id='1543'> +2.9756030e+11 </wgt>
<wgt id='1544'> +2.9459112e+11 </wgt>
<wgt id='1545'> +2.9453353e+11 </wgt>
<wgt id='1546'> +2.9258842e+11 </wgt>
<wgt id='1547'> +2.9879534e+11 </wgt>
<wgt id='1548'> +2.9450374e+11 </wgt>
<wgt id='1549'> +2.9313661e+11 </wgt>
<wgt id='1550'> +2.9713951e+11 </wgt>
<wgt id='1551'> +2.9713238e+11 </wgt>
<wgt id='1552'> +2.9583758e+11 </wgt>
<wgt id='1553'> +2.9835226e+11 </wgt>
<wgt id='1554'> +2.9634214e+11 </wgt>
<wgt id='1555'> +2.9710539e+11 </wgt>
<wgt id='1556'> +2.9886489e+11 </wgt>
<wgt id='1557'> +2.9567831e+11 </wgt>
<wgt id='1558'> +2.9648755e+11 </wgt>
<wgt id='1559'> +2.9445584e+11 </wgt>
<wgt id='1560'> +2.9527272e+11 </wgt>
<wgt id='1561'> +2.9261411e+11 </wgt>
<wgt id='1562'> +2.9507102e+11 </wgt>
<wgt id='1563'> +2.9643649e+11 </wgt>
<wgt id='1564'> +2.9610163e+11 </wgt>
<wgt id='1565'> +2.9867108e+11 </wgt>
<wgt id='1566'> +2.9675584e+11 </wgt>
<wgt id='1567'> +3.0004805e+11 </wgt>
<wgt id='1568'> +2.9643876e+11 </wgt>
<wgt id='1569'> +2.9613549e+11 </wgt>
<wgt id='1570'> +2.9876135e+11 </wgt>
<wgt id='1571'> +2.9627421e+11 </wgt>
<wgt id='1572'> +2.9824649e+11 </wgt>
<wgt id='1573'> +2.9935421e+11 </wgt>
<wgt id='1574'> +2.6680058e+11 </wgt>
<wgt id='1575'> +2.6687327e+11 </wgt>
<wgt id='1576'> +2.6673266e+11 </wgt>
<wgt id='1577'> +2.6681896e+11 </wgt>
<wgt id='1578'> +2.6741396e+11 </wgt>
<wgt id='1579'> +2.6766766e+11 </wgt>
<wgt id='1580'> +2.6744011e+11 </wgt>
<wgt id='1581'> +2.6617119e+11 </wgt>
<wgt id='1582'> +2.6586293e+11 </wgt>
<wgt id='1583'> +2.6635463e+11 </wgt>
<wgt id='1584'> +2.6738290e+11 </wgt>
<wgt id='1585'> +2.6699019e+11 </wgt>
<wgt id='1586'> +2.6577395e+11 </wgt>
<wgt id='1587'> +2.6603153e+11 </wgt>
<wgt id='1588'> +2.6552634e+11 </wgt>
<wgt id='1589'> +2.6654751e+11 </wgt>
<wgt id='1590'> +2.6661310e+11 </wgt>
<wgt id='1591'> +2.6686872e+11 </wgt>
<wgt id='1592'> +2.6576475e+11 </wgt>
<wgt id='1593'> +2.6593076e+11 </wgt>
<wgt id='1594'> +2.6761703e+11 </wgt>
<wgt id='1595'> +2.6455994e+11 </wgt>
<wgt id='1596'> +2.7039290e+11 </wgt>
<wgt id='1597'> +2.6853951e+11 </wgt>
<wgt id='1598'> +2.6876467e+11 </wgt>
<wgt id='1599'> +2.6405032e+11 </wgt>
<wgt id='1600'> +2.7123317e+11 </wgt>
<wgt id='1601'> +2.6894574e+11 </wgt>
<wgt id='1602'> +2.6685806e+11 </wgt>
<wgt id='1603'> +2.7729449e+11 </wgt>
<wgt id='1604'> +2.6682061e+11 </wgt>
</rwgt>
</event>
<event>
 9      1 +2.8343000e+11 1.40000500e+03 7.81738600e-03 7.88880900e-02
       21 -1    0    0  504  503 +0.0000000000e+00 +0.0000000000e+00 +4.5398698418e+02 4.5398698418e+02 0.0000000000e+00 0.0000e+00 1.0000e+00
       21 -1    0    0  503  504 -0.0000000000e+00 -0.0000000000e+00 -1.0793332668e+03 1.0793332668e+03 0.0000000000e+00 0.0000e+00 1.0000e+00
       45  2    1    2    0    0 +0.0000000000e+00 +0.0000000000e+00 -6.2534628267e+02 1.5333202510e+03 1.4000046496e+03 0.0000e+00 0.0000e+00
       25  2    3    3    0    0 -3.9689868648e+02 +4.3069917154e+02 +8.8716220855e+01 6.0541116561e+02 1.2498707093e+02 0.0000e+00 0.0000e+00
       35  2    3    3    0    0 +3.9689868648e+02 -4.3069917154e+02 -7.1406250352e+02 9.2790908542e+02 8.9998156433e+01 0.0000e+00 0.0000e+00
        5  1    5    5  501    0 +2.8050898871e+01 -4.4795250545e+00 -3.9578805411e+01 4.8899475518e+01 4.2140000000e+00 0.0000e+00 1.0000e+00
       -5  1    5    5    0  501 +3.6884778761e+02 -4.2621964649e+02 -6.7448369811e+02 8.7900960990e+02 4.2140000000e+00 0.0000e+00 1.0000e+00
        5  1    4    4  502    0 -2.9351383818e+02 +2.6031333711e+02 +1.4203982444e+01 3.9259765357e+02 4.2140000000e+00 0.0000e+00 1.0000e+00
       -5  1    4    4    0  502 -1.0338484830e+02 +1.7038583444e+02 +7.4512238411e+01 2.1281351204e+02 4.2140000000e+00 0.0000e+00 1.0000e+00
<mgrwt>
<rscale>  0 0.14000046E+04</rscale>
<asrwt>0</asrwt>
<pdfrwt beam="1">  1       21 0.69844152E-01 0.14000046E+04</pdfrwt>
<pdfrwt beam="2">  1       21 0.16605127E+00 0.14000046E+04</pdfrwt>
<totfact> 0.30507178E+02</totfact>
</mgrwt>
<rwgt>
<wgt id='1001'> +2.8343000e+11 </wgt>
<wgt id='1002'> +2.9127784e+11 </wgt>
<wgt id='1003'> +2.9126896e+11 </wgt>
<wgt id='1004'> +3.2779922e+11 </wgt>
<wgt id='1005'> +2.8343000e+11 </wgt>
<wgt id='1006'> +2.8343000e+11 </wgt>
<wgt id='1007'> +2.9127784e+11 </wgt>
<wgt id='1008'> +2.9126896e+11 </wgt>
<wgt id='1009'> +3.2779922e+11 </wgt>
<wgt id='1010'> +2.8343000e+11 </wgt>
<wgt id='1011'> +2.8343000e+11 </wgt>
<wgt id='1012'> +2.9127784e+11 </wgt>
<wgt id='1013'> +2.9126896e+11 </wgt>
<wgt id='1014'> +3.2779922e+11 </wgt>
<wgt id='1015'> +2.8343000e+11 </wgt>
<wgt id='1016'> +2.5417737e+11 </wgt>
<wgt id='1017'> +2.6080214e+11 </wgt>
<wgt id='1018'> +2.6079466e+11 </wgt>
<wgt id='1019'> +2.9126896e+11 </wgt>
<wgt id='1020'> +2.5417737e+11 </wgt>
<wgt id='1021'> +2.5417737e+11 </wgt>
<wgt id='1022'> +2.6080214e+11 </wgt>
<wgt id='1023'> +2.6079466e+11 </wgt>
<wgt id='1024'> +2.9126896e+11 </wgt>
<wgt id='1025'> +2.5417737e+11 </wgt>
<wgt id='1026'> +2.5417737e+11 </wgt>
<wgt id='1027'> +2.6080214e+11 </wgt>
<wgt id='1028'> +2.6079466e+11 </wgt>
<wgt id='1029'> +2.9126896e+11 </wgt>
<wgt id='1030'> +2.5417737e+11 </wgt>
<wgt id='1031'> +3.1836486e+11 </wgt>
<wgt id='1032'> +3.2780991e+11 </wgt>
<wgt id='1033'> +3.2779922e+11 </wgt>
<wgt id='1034'> +3.7192961e+11 </wgt>
<wgt id='1035'> +3.1836486e+11 </wgt>
<wgt id='1036'> +3.1836486e+11 </wgt>
<wgt id='1037'> +3.2780991e+11 </wgt>
<wgt id='1038'> +3.2779922e+11 </wgt>
<wgt id='1039'> +3.7192961e+11 </wgt>
<wgt id='1040'> +3.1836486e+11 </wgt>
<wgt id='1041'> +3.1836486e+11 </wgt>
<wgt id='1042'> +3.2780991e+11 </wgt>
<wgt id='1043'> +3.2779922e+11 </wgt>
<wgt id='1044'> +3.7192961e+11 </wgt>
<wgt id='1045'> +3.1836486e+11 </wgt>
<wgt id='1046'> +2.8343000e+11 </wgt>
<wgt id='1047'> +2.8343000e+11 </wgt>
<wgt id='1048'> +2.8343000e+11 </wgt>
<wgt id='1049'> +2.8274017e+11 </wgt>
<wgt id='1050'> +2.8324185e+11 </wgt>
<wgt id='1051'> +2.8329489e+11 </wgt>
<wgt id='1052'> +2.8435152e+11 </wgt>
<wgt id='1053'> +2.8171239e+11 </wgt>
<wgt id='1054'> +2.8372392e+11 </wgt>
<wgt id='1055'> +2.8223520e+11 </wgt>
<wgt id='1056'> +2.8209347e+11 </wgt>
<wgt id='1057'> +2.8365082e+11 </wgt>
<wgt id='1058'> +2.8286338e+11 </wgt>
<wgt id='1059'> +2.8521511e+11 </wgt>
<wgt id='1060'> +2.8378447e+11 </wgt>
<wgt id='1061'> +2.8397443e+11 </wgt>
<wgt id='1062'> +2.8423900e+11 </wgt>
<wgt id='1063'> +2.8437220e+11 </wgt>
<wgt id='1064'> +2.8412713e+11 </wgt>
<wgt id='1065'> +2.8467491e+11 </wgt>
<wgt id='1066'> +2.8133128e+11 </wgt>
<wgt id='1067'> +2.8134721e+11 </wgt>
<wgt id='1068'> +2.8331873e+11 </wgt>
<wgt id='1069'> +2.8257661e+11 </wgt>
<wgt id='1070'> +2.8387363e+11 </wgt>
<wgt id='1071'> +2.8341363e+11 </wgt>
<wgt id='1072'> +2.8202785e+11 </wgt>
<wgt id='1073'> +2.8349100e+11 </wgt>
<wgt id='1074'> +2.8327453e+11 </wgt>
<wgt id='1075'> +2.8447091e+11 </wgt>
<wgt id='1076'> +2.8169012e+11 </wgt>
<wgt id='1077'> +2.8213294e+11 </wgt>
<wgt id='1078'> +2.8409901e+11 </wgt>
<wgt id='1079'> +2.8216256e+11 </wgt>
<wgt id='1080'> +2.8316830e+11 </wgt>
<wgt id='1081'> +2.8293939e+11 </wgt>
<wgt id='1082'> +2.8219629e+11 </wgt>
<wgt id='1083'> +2.8386884e+11 </wgt>
<wgt id='1084'> +2.8391937e+11 </wgt>
<wgt id='1085'> +2.8274402e+11 </wgt>
<wgt id='1086'> +2.8311903e+11 </wgt>
<wgt id='1087'> +2.8314834e+11 </wgt>
<wgt id='1088'> +2.8293902e+11 </wgt>
<wgt id='1089'> +2.8263905e+11 </wgt>
<wgt id='1090'> +2.8411259e+11 </wgt>
<wgt id='1091'> +2.8351935e+11 </wgt>
<wgt id='1092'> +2.8376173e+11 </wgt>
<wgt id='1093'> +2.8336555e+11 </wgt>
<wgt id='1094'> +2.8271297e+11 </wgt>
<wgt id='1095'> +2.8362620e+11 </wgt>
<wgt id='1096'> +2.8341062e+11 </wgt>
<wgt id='1097'> +2.8299026e+11 </wgt>
<wgt id='1098'> +2.8310531e+11 </wgt>
<wgt id='1099'> +2.8316870e+11 </wgt>
<wgt id='1100'> +2.8404607e+11 </wgt>
<wgt id='1101'> +2.8346654e+11 </wgt>
<wgt id='1102'> +2.8331637e+11 </wgt>
<wgt id='1103'> +2.8295616e+11 </wgt>
<wgt id='1104'> +2.8318190e+11 </wgt>
<wgt id='1105'> +2.8353151e+11 </wgt>
<wgt id='1106'> +2.8376233e+11 </wgt>
<wgt id='1107'> +2.8345981e+11 </wgt>
<wgt id='1108'> +2.8327306e+11 </wgt>
<wgt id='1109'> +2.8322311e+11 </wgt>
<wgt id='1110'> +2.8372649e+11 </wgt>
<wgt id='1111'> +2.8357843e+11 </wgt>
<wgt id='1112'> +2.8338502e+11 </wgt>
<wgt id='1113'> +2.8375956e+11 </wgt>
<wgt id='1114'> +2.8312237e+11 </wgt>
<wgt id='1115'> +2.8313801e+11 </wgt>
<wgt id='1116'> +2.8389104e+11 </wgt>
<wgt id='1117'> +2.8336119e+11 </wgt>
<wgt id='1118'> +2.8360614e+11 </wgt>
<wgt id='1119'> +2.8315503e+11 </wgt>
<wgt id='1120'> +2.8321141e+11 </wgt>
<wgt id='1121'> +2.8351245e+11 </wgt>
<wgt id='1122'> +2.8317563e+11 </wgt>
<wgt id='1123'> +2.8337396e+11 </wgt>
<wgt id='1124'> +2.8340188e+11 </wgt>
<wgt id='1125'> +2.8360668e+11 </wgt>
<wgt id='1126'> +2.8354190e+11 </wgt>
<wgt id='1127'> +2.8330081e+11 </wgt>
<wgt id='1128'> +2.8343000e+11 </wgt>
<wgt id='1129'> +2.8333809e+11 </wgt>
<wgt id='1130'> +2.8346458e+11 </wgt>
<wgt id='1131'> +2.8380703e+11 </wgt>
<wgt id='1132'> +2.8334749e+11 </wgt>
<wgt id='1133'> +2.8353701e+11 </wgt>
<wgt id='1134'> +2.8342210e+11 </wgt>
<wgt id='1135'> +2.8346664e+11 </wgt>
<wgt id='1136'> +2.8336424e+11 </wgt>
<wgt id='1137'> +2.8325340e+11 </wgt>
<wgt id='1138'> +2.8356096e+11 </wgt>
<wgt id='1139'> +2.8349005e+11 </wgt>
<wgt id='1140'> +2.8366185e+11 </wgt>
<wgt id='1141'> +2.8324935e+11 </wgt>
<wgt id='1142'> +2.8349081e+11 </wgt>
<wgt id='1143'> +2.8360345e+11 </wgt>
<wgt id='1144'> +2.8333136e+11 </wgt>
<wgt id='1145'> +2.8356853e+11 </wgt>
<wgt id='1146'> +2.8345201e+11 </wgt>
<wgt id='1147'> +2.8348370e+11 </wgt>
<wgt id='1148'> +2.8343000e+11 </wgt>
<wgt id='1149'> +2.8343000e+11 </wgt>
<wgt id='1150'> +2.9674830e+11 </wgt>
<wgt id='1151'> +2.7808002e+11 </wgt>
<wgt id='1152'> +2.7856879e+11 </wgt>
<wgt id='1153'> +2.8623186e+11 </wgt>
<wgt id='1154'> +2.8336928e+11 </wgt>
<wgt id='1155'> +2.9202976e+11 </wgt>
<wgt id='1156'> +2.7744160e+11 </wgt>
<wgt id='1157'> +2.7462045e+11 </wgt>
<wgt id='1158'> +2.7710293e+11 </wgt>
<wgt id='1159'> +2.9986311e+11 </wgt>
<wgt id='1160'> +2.8454011e+11 </wgt>
<wgt id='1161'> +2.8688692e+11 </wgt>
<wgt id='1162'> +2.8346679e+11 </wgt>
<wgt id='1163'> +2.8624817e+11 </wgt>
<wgt id='1164'> +2.7209492e+11 </wgt>
<wgt id='1165'> +2.7776758e+11 </wgt>
<wgt id='1166'> +2.8335407e+11 </wgt>
<wgt id='1167'> +2.7818505e+11 </wgt>
<wgt id='1168'> +2.7482604e+11 </wgt>
<wgt id='1169'> +2.7573971e+11 </wgt>
<wgt id='1170'> +2.8301453e+11 </wgt>
<wgt id='1171'> +2.7289710e+11 </wgt>
<wgt id='1172'> +2.7532665e+11 </wgt>
<wgt id='1173'> +2.8573325e+11 </wgt>
<wgt id='1174'> +2.7727961e+11 </wgt>
<wgt id='1175'> +2.7770115e+11 </wgt>
<wgt id='1176'> +2.8653176e+11 </wgt>
<wgt id='1177'> +2.7807446e+11 </wgt>
<wgt id='1178'> +2.8354136e+11 </wgt>
<wgt id='1179'> +2.8235629e+11 </wgt>
<wgt id='1180'> +2.9020313e+11 </wgt>
<wgt id='1181'> +2.8618900e+11 </wgt>
<wgt id='1182'> +2.8011685e+11 </wgt>
<wgt id='1183'> +2.9095446e+11 </wgt>
<wgt id='1184'> +2.8304858e+11 </wgt>
<wgt id='1185'> +2.8674187e+11 </wgt>
<wgt id='1186'> +2.7629574e+11 </wgt>
<wgt id='1187'> +2.8432030e+11 </wgt>
<wgt id='1188'> +2.8621902e+11 </wgt>
<wgt id='1189'> +2.8250895e+11 </wgt>
<wgt id='1190'> +2.8152968e+11 </wgt>
<wgt id='1191'> +2.9134200e+11 </wgt>
<wgt id='1192'> +2.8923826e+11 </wgt>
<wgt id='1193'> +2.9173499e+11 </wgt>
<wgt id='1194'> +2.8129553e+11 </wgt>
<wgt id='1195'> +2.8418618e+11 </wgt>
<wgt id='1196'> +2.9165348e+11 </wgt>
<wgt id='1197'> +2.9146778e+11 </wgt>
<wgt id='1198'> +2.8313955e+11 </wgt>
<wgt id='1199'> +2.8742699e+11 </wgt>
<wgt id='1200'> +2.8641363e+11 </wgt>
<wgt id='1201'> +2.8030533e+11 </wgt>
<wgt id='1202'> +2.8682176e+11 </wgt>
<wgt id='1203'> +2.8069555e+11 </wgt>
<wgt id='1204'> +2.8359496e+11 </wgt>
<wgt id='1205'> +2.8376006e+11 </wgt>
<wgt id='1206'> +2.7909375e+11 </wgt>
<wgt id='1207'> +2.9135247e+11 </wgt>
<wgt id='1208'> +2.7086093e+11 </wgt>
<wgt id='1209'> +2.8245713e+11 </wgt>
<wgt id='1210'> +2.8495894e+11 </wgt>
<wgt id='1211'> +2.8489956e+11 </wgt>
<wgt id='1212'> +2.8309262e+11 </wgt>
<wgt id='1213'> +2.8970310e+11 </wgt>
<wgt id='1214'> +2.7706941e+11 </wgt>
<wgt id='1215'> +2.8591283e+11 </wgt>
<wgt id='1216'> +2.8251246e+11 </wgt>
<wgt id='1217'> +2.7738784e+11 </wgt>
<wgt id='1218'> +2.8482673e+11 </wgt>
<wgt id='1219'> +2.9368000e+11 </wgt>
<wgt id='1220'> +2.7909038e+11 </wgt>
<wgt id='1221'> +2.7638587e+11 </wgt>
<wgt id='1222'> +2.7885081e+11 </wgt>
<wgt id='1223'> +2.7309036e+11 </wgt>
<wgt id='1224'> +2.8292719e+11 </wgt>
<wgt id='1225'> +2.8794068e+11 </wgt>
<wgt id='1226'> +2.8725808e+11 </wgt>
<wgt id='1227'> +2.7868231e+11 </wgt>
<wgt id='1228'> +2.8204433e+11 </wgt>
<wgt id='1229'> +3.0144290e+11 </wgt>
<wgt id='1230'> +2.9055470e+11 </wgt>
<wgt id='1231'> +2.7776758e+11 </wgt>
<wgt id='1232'> +2.8747565e+11 </wgt>
<wgt id='1233'> +2.7661493e+11 </wgt>
<wgt id='1234'> +2.7718348e+11 </wgt>
<wgt id='1235'> +3.0008080e+11 </wgt>
<wgt id='1236'> +2.7730107e+11 </wgt>
<wgt id='1237'> +2.8907399e+11 </wgt>
<wgt id='1238'> +2.8368997e+11 </wgt>
<wgt id='1239'> +2.8725660e+11 </wgt>
<wgt id='1240'> +2.7976283e+11 </wgt>
<wgt id='1241'> +2.8479708e+11 </wgt>
<wgt id='1242'> +2.8000951e+11 </wgt>
<wgt id='1243'> +2.8619768e+11 </wgt>
<wgt id='1244'> +2.8569353e+11 </wgt>
<wgt id='1245'> +2.7937895e+11 </wgt>
<wgt id='1246'> +3.0501704e+11 </wgt>
<wgt id='1247'> +2.8176016e+11 </wgt>
<wgt id='1248'> +2.7349014e+11 </wgt>
<wgt id='1249'> +2.7598684e+11 </wgt>
<wgt id='1250'> +2.9286285e+11 </wgt>
<wgt id='1251'> +3.0068318e+11 </wgt>
<wgt id='1252'> +2.8821555e+11 </wgt>
<wgt id='1253'> +2.8895948e+11 </wgt>
<wgt id='1254'> +2.8917292e+11 </wgt>
<wgt id='1255'> +3.0130893e+11 </wgt>
<wgt id='1256'> +3.0126271e+11 </wgt>
<wgt id='1257'> +2.9612569e+11 </wgt>
<wgt id='1258'> +2.9573099e+11 </wgt>
<wgt id='1259'> +2.9985493e+11 </wgt>
<wgt id='1260'> +3.2662045e+11 </wgt>
<wgt id='1261'> +3.1442932e+11 </wgt>
<wgt id='1262'> +2.9247243e+11 </wgt>
<wgt id='1263'> +2.9859587e+11 </wgt>
<wgt id='1264'> +3.0139300e+11 </wgt>
<wgt id='1265'> +2.9627148e+11 </wgt>
<wgt id='1266'> +3.0081049e+11 </wgt>
<wgt id='1267'> +3.3377897e+11 </wgt>
<wgt id='1268'> +2.9165710e+11 </wgt>
<wgt id='1269'> +2.8737309e+11 </wgt>
<wgt id='1270'> +2.9960856e+11 </wgt>
<wgt id='1271'> +2.7221014e+11 </wgt>
<wgt id='1272'> +2.9349113e+11 </wgt>
<wgt id='1273'> +2.9133037e+11 </wgt>
<wgt id='1274'> +2.8696194e+11 </wgt>
<wgt id='1275'> +2.9625571e+11 </wgt>
<wgt id='1276'> +2.9998100e+11 </wgt>
<wgt id='1277'> +2.9505535e+11 </wgt>
<wgt id='1278'> +2.9536248e+11 </wgt>
<wgt id='1279'> +2.8054942e+11 </wgt>
<wgt id='1280'> +2.8848089e+11 </wgt>
<wgt id='1281'> +2.8553212e+11 </wgt>
<wgt id='1282'> +2.9616384e+11 </wgt>
<wgt id='1283'> +3.0395176e+11 </wgt>
<wgt id='1284'> +3.1171309e+11 </wgt>
<wgt id='1285'> +3.0857798e+11 </wgt>
<wgt id='1286'> +3.2970841e+11 </wgt>
<wgt id='1287'> +3.0574000e+11 </wgt>
<wgt id='1288'> +3.2947174e+11 </wgt>
<wgt id='1289'> +3.1399017e+11 </wgt>
<wgt id='1290'> +3.1238976e+11 </wgt>
<wgt id='1291'> +2.7848237e+11 </wgt>
<wgt id='1292'> +3.0096007e+11 </wgt>
<wgt id='1293'> +3.0255446e+11 </wgt>
<wgt id='1294'> +3.1929437e+11 </wgt>
<wgt id='1295'> +3.0662832e+11 </wgt>
<wgt id='1296'> +3.2305954e+11 </wgt>
<wgt id='1297'> +2.9333382e+11 </wgt>
<wgt id='1298'> +2.8835686e+11 </wgt>
<wgt id='1299'> +3.0217308e+11 </wgt>
<wgt id='1300'> +2.8723848e+11 </wgt>
<wgt id='1301'> +2.7980505e+11 </wgt>
<wgt id='1302'> +2.8177494e+11 </wgt>
<wgt id='1303'> +3.0142410e+11 </wgt>
<wgt id='1304'> +3.1731141e+11 </wgt>
<wgt id='1305'> +2.9890071e+11 </wgt>
<wgt id='1306'> +3.0614562e+11 </wgt>
<wgt id='1307'> +2.9537710e+11 </wgt>
<wgt id='1308'> +3.2866506e+11 </wgt>
<wgt id='1309'> +2.9886633e+11 </wgt>
<wgt id='1310'> +3.0315197e+11 </wgt>
<wgt id='1311'> +3.0293427e+11 </wgt>
<wgt id='1312'> +3.0650748e+11 </wgt>
<wgt id='1313'> +3.0086803e+11 </wgt>
<wgt id='1314'> +2.9905035e+11 </wgt>
<wgt id='1315'> +2.8705139e+11 </wgt>
<wgt id='1316'> +2.9985115e+11 </wgt>
<wgt id='1317'> +3.0679524e+11 </wgt>
<wgt id='1318'> +2.9062992e+11 </wgt>
<wgt id='1319'> +3.0067827e+11 </wgt>
<wgt id='1320'> +3.1410830e+11 </wgt>
<wgt id='1321'> +2.9803422e+11 </wgt>
<wgt id='1322'> +3.0313055e+11 </wgt>
<wgt id='1323'> +2.9421910e+11 </wgt>
<wgt id='1324'> +3.0486636e+11 </wgt>
<wgt id='1325'> +3.1218782e+11 </wgt>
<wgt id='1326'> +3.0721118e+11 </wgt>
<wgt id='1327'> +3.0522891e+11 </wgt>
<wgt id='1328'> +2.9896447e+11 </wgt>
<wgt id='1329'> +2.9833878e+11 </wgt>
<wgt id='1330'> +2.8797194e+11 </wgt>
<wgt id='1331'> +3.2161097e+11 </wgt>
<wgt id='1332'> +2.9232703e+11 </wgt>
<wgt id='1333'> +3.0206041e+11 </wgt>
<wgt id='1334'> +3.1580316e+11 </wgt>
<wgt id='1335'> +2.9330620e+11 </wgt>
<wgt id='1336'> +3.1022187e+11 </wgt>
<wgt id='1337'> +3.0914731e+11 </wgt>
<wgt id='1338'> +2.8895526e+11 </wgt>
<wgt id='1339'> +3.1789072e+11 </wgt>
<wgt id='1340'> +3.0493699e+11 </wgt>
<wgt id='1341'> +3.1448183e+11 </wgt>
<wgt id='1342'> +3.0870327e+11 </wgt>
<wgt id='1343'> +3.0971744e+11 </wgt>
<wgt id='1344'> +3.1186280e+11 </wgt>
<wgt id='1345'> +2.7141517e+11 </wgt>
<wgt id='1346'> +3.0276697e+11 </wgt>
<wgt id='1347'> +2.9018974e+11 </wgt>
<wgt id='1348'> +2.8977918e+11 </wgt>
<wgt id='1349'> +2.8812742e+11 </wgt>
<wgt id='1350'> +3.0514592e+11 </wgt>
<wgt id='1351'> +2.9397789e+11 </wgt>
<wgt id='1352'> +3.0275650e+11 </wgt>
<wgt id='1353'> +2.9946293e+11 </wgt>
<wgt id='1354'> +3.0876822e+11 </wgt>
<wgt id='1355'> +2.7656578e+11 </wgt>
<wgt id='1356'> +2.7924851e+11 </wgt>
<wgt id='1357'> +2.7697158e+11 </wgt>
<wgt id='1358'> +2.7455818e+11 </wgt>
<wgt id='1359'> +2.7658900e+11 </wgt>
<wgt id='1360'> +2.7102445e+11 </wgt>
<wgt id='1361'> +2.7584199e+11 </wgt>
<wgt id='1362'> +2.8178652e+11 </wgt>
<wgt id='1363'> +2.7263673e+11 </wgt>
<wgt id='1364'> +2.8168363e+11 </wgt>
<wgt id='1365'> +2.7436536e+11 </wgt>
<wgt id='1366'> +2.7426734e+11 </wgt>
<wgt id='1367'> +2.7696002e+11 </wgt>
<wgt id='1368'> +2.7687148e+11 </wgt>
<wgt id='1369'> +2.7974726e+11 </wgt>
<wgt id='1370'> +2.7432583e+11 </wgt>
<wgt id='1371'> +2.7623868e+11 </wgt>
<wgt id='1372'> +2.7948518e+11 </wgt>
<wgt id='1373'> +2.7983262e+11 </wgt>
<wgt id='1374'> +2.6880580e+11 </wgt>
<wgt id='1375'> +2.7686804e+11 </wgt>
<wgt id='1376'> +2.7632220e+11 </wgt>
<wgt id='1377'> +2.7709250e+11 </wgt>
<wgt id='1378'> +2.7466556e+11 </wgt>
<wgt id='1379'> +2.7504503e+11 </wgt>
<wgt id='1380'> +2.7431761e+11 </wgt>
<wgt id='1381'> +2.8149221e+11 </wgt>
<wgt id='1382'> +2.7578414e+11 </wgt>
<wgt id='1383'> +2.7502893e+11 </wgt>
<wgt id='1384'> +2.7368871e+11 </wgt>
<wgt id='1385'> +2.7330762e+11 </wgt>
<wgt id='1386'> +2.7640385e+11 </wgt>
<wgt id='1387'> +2.7502589e+11 </wgt>
<wgt id='1388'> +2.7213541e+11 </wgt>
<wgt id='1389'> +2.7544512e+11 </wgt>
<wgt id='1390'> +2.7750961e+11 </wgt>
<wgt id='1391'> +2.7461355e+11 </wgt>
<wgt id='1392'> +2.7390745e+11 </wgt>
<wgt id='1393'> +2.7619757e+11 </wgt>
<wgt id='1394'> +2.7485230e+11 </wgt>
<wgt id='1395'> +2.7191008e+11 </wgt>
<wgt id='1396'> +2.7719596e+11 </wgt>
<wgt id='1397'> +2.7734900e+11 </wgt>
<wgt id='1398'> +2.7830618e+11 </wgt>
<wgt id='1399'> +2.7351992e+11 </wgt>
<wgt id='1400'> +2.7250523e+11 </wgt>
<wgt id='1401'> +2.7654306e+11 </wgt>
<wgt id='1402'> +2.7942222e+11 </wgt>
<wgt id='1403'> +2.8223658e+11 </wgt>
<wgt id='1404'> +2.7732389e+11 </wgt>
<wgt id='1405'> +2.8290585e+11 </wgt>
<wgt id='1406'> +2.7784566e+11 </wgt>
<wgt id='1407'> +2.7693908e+11 </wgt>
<wgt id='1408'> +2.8122140e+11 </wgt>
<wgt id='1409'> +2.7319738e+11 </wgt>
<wgt id='1410'> +2.7107611e+11 </wgt>
<wgt id='1411'> +2.7628605e+11 </wgt>
<wgt id='1412'> +2.7484373e+11 </wgt>
<wgt id='1413'> +2.7506580e+11 </wgt>
<wgt id='1414'> +2.7891548e+11 </wgt>
<wgt id='1415'> +2.8002130e+11 </wgt>
<wgt id='1416'> +2.7891324e+11 </wgt>
<wgt id='1417'> +2.7218870e+11 </wgt>
<wgt id='1418'> +2.7698922e+11 </wgt>
<wgt id='1419'> +2.8032377e+11 </wgt>
<wgt id='1420'> +2.7467006e+11 </wgt>
<wgt id='1421'> +2.8273196e+11 </wgt>
<wgt id='1422'> +2.6964526e+11 </wgt>
<wgt id='1423'> +2.8141273e+11 </wgt>
<wgt id='1424'> +2.7770930e+11 </wgt>
<wgt id='1425'> +2.7713661e+11 </wgt>
<wgt id='1426'> +2.7902706e+11 </wgt>
<wgt id='1427'> +2.7607415e+11 </wgt>
<wgt id='1428'> +2.7593238e+11 </wgt>
<wgt id='1429'> +2.7523681e+11 </wgt>
<wgt id='1430'> +2.7252544e+11 </wgt>
<wgt id='1431'> +2.7159050e+11 </wgt>
<wgt id='1432'> +2.7634253e+11 </wgt>
<wgt id='1433'> +2.7509784e+11 </wgt>
<wgt id='1434'> +2.8397717e+11 </wgt>
<wgt id='1435'> +2.7553485e+11 </wgt>
<wgt id='1436'> +2.8033399e+11 </wgt>
<wgt id='1437'> +2.7723894e+11 </wgt>
<wgt id='1438'> +2.7555906e+11 </wgt>
<wgt id='1439'> +2.7978626e+11 </wgt>
<wgt id='1440'> +2.7955465e+11 </wgt>
<wgt id='1441'> +2.7453835e+11 </wgt>
<wgt id='1442'> +2.8202877e+11 </wgt>
<wgt id='1443'> +2.7420518e+11 </wgt>
<wgt id='1444'> +2.7793982e+11 </wgt>
<wgt id='1445'> +2.7796615e+11 </wgt>
<wgt id='1446'> +2.8132315e+11 </wgt>
<wgt id='1447'> +2.7392164e+11 </wgt>
<wgt id='1448'> +2.7900263e+11 </wgt>
<wgt id='1449'> +2.7909090e+11 </wgt>
<wgt id='1450'> +2.7562130e+11 </wgt>
<wgt id='1451'> +2.7789931e+11 </wgt>
<wgt id='1452'> +2.7892869e+11 </wgt>
<wgt id='1453'> +2.7887103e+11 </wgt>
<wgt id='1454'> +2.6900345e+11 </wgt>
<wgt id='1455'> +2.7547065e+11 </wgt>
<wgt id='1456'> +2.7558409e+11 </wgt>
<wgt id='1457'> +2.7555629e+11 </wgt>
<wgt id='1458'> +2.8037490e+11 </wgt>
<wgt id='1459'> +3.0812916e+11 </wgt>
<wgt id='1460'> +3.0327115e+11 </wgt>
<wgt id='1461'> +3.5587654e+11 </wgt>
<wgt id='1462'> +2.9915221e+11 </wgt>
<wgt id='1463'> +2.9938733e+11 </wgt>
<wgt id='1464'> +2.9885065e+11 </wgt>
<wgt id='1465'> +2.9921623e+11 </wgt>
<wgt id='1466'> +2.9909371e+11 </wgt>
<wgt id='1467'> +2.9929157e+11 </wgt>
<wgt id='1468'> +2.9892353e+11 </wgt>
<wgt id='1469'> +2.9871260e+11 </wgt>
<wgt id='1470'> +2.9950924e+11 </wgt>
<wgt id='1471'> +2.9961465e+11 </wgt>
<wgt id='1472'> +2.9867589e+11 </wgt>
<wgt id='1473'> +3.0032058e+11 </wgt>
<wgt id='1474'> +2.9802998e+11 </wgt>
<wgt id='1475'> +3.0026287e+11 </wgt>
<wgt id='1476'> +2.9836480e+11 </wgt>
<wgt id='1477'> +2.9859340e+11 </wgt>
<wgt id='1478'> +3.0045763e+11 </wgt>
<wgt id='1479'> +2.9868960e+11 </wgt>
<wgt id='1480'> +2.9947723e+11 </wgt>
<wgt id='1481'> +2.9868462e+11 </wgt>
<wgt id='1482'> +2.9978353e+11 </wgt>
<wgt id='1483'> +2.9923597e+11 </wgt>
<wgt id='1484'> +2.9903438e+11 </wgt>
<wgt id='1485'> +2.9935953e+11 </wgt>
<wgt id='1486'> +2.9865294e+11 </wgt>
<wgt id='1487'> +2.9941992e+11 </wgt>
<wgt id='1488'> +2.9881716e+11 </wgt>
<wgt id='1489'> +2.9879185e+11 </wgt>
<wgt id='1490'> +3.0012929e+11 </wgt>
<wgt id='1491'> +3.0409063e+11 </wgt>
<wgt id='1492'> +2.9639814e+11 </wgt>
<wgt id='1493'> +2.9559540e+11 </wgt>
<wgt id='1494'> +3.1030429e+11 </wgt>
<wgt id='1495'> +2.9844446e+11 </wgt>
<wgt id='1496'> +2.9991172e+11 </wgt>
<wgt id='1497'> +2.9935199e+11 </wgt>
<wgt id='1498'> +2.9887919e+11 </wgt>
<wgt id='1499'> +3.0109377e+11 </wgt>
<wgt id='1500'> +2.9809083e+11 </wgt>
<wgt id='1501'> +2.9958086e+11 </wgt>
<wgt id='1502'> +2.9801753e+11 </wgt>
<wgt id='1503'> +2.9566520e+11 </wgt>
<wgt id='1504'> +3.0293075e+11 </wgt>
<wgt id='1505'> +3.0005024e+11 </wgt>
<wgt id='1506'> +2.9827942e+11 </wgt>
<wgt id='1507'> +3.0116957e+11 </wgt>
<wgt id='1508'> +2.9680595e+11 </wgt>
<wgt id='1509'> +2.9979932e+11 </wgt>
<wgt id='1510'> +2.9637010e+11 </wgt>
<wgt id='1511'> +3.0031551e+11 </wgt>
<wgt id='1512'> +2.9880111e+11 </wgt>
<wgt id='1513'> +2.9904903e+11 </wgt>
<wgt id='1514'> +2.9926582e+11 </wgt>
<wgt id='1515'> +3.0200914e+11 </wgt>
<wgt id='1516'> +2.9931160e+11 </wgt>
<wgt id='1517'> +2.9873057e+11 </wgt>
<wgt id='1518'> +2.9959126e+11 </wgt>
<wgt id='1519'> +2.9739488e+11 </wgt>
<wgt id='1520'> +3.0040054e+11 </wgt>
<wgt id='1521'> +2.9822353e+11 </wgt>
<wgt id='1522'> +2.9969367e+11 </wgt>
<wgt id='1523'> +3.0042556e+11 </wgt>
<wgt id='1524'> +3.0062803e+11 </wgt>
<wgt id='1525'> +3.0019619e+11 </wgt>
<wgt id='1526'> +3.0018408e+11 </wgt>
<wgt id='1527'> +2.9915221e+11 </wgt>
<wgt id='1528'> +2.9866068e+11 </wgt>
<wgt id='1529'> +2.9919899e+11 </wgt>
<wgt id='1530'> +2.9536467e+11 </wgt>
<wgt id='1531'> +2.9823444e+11 </wgt>
<wgt id='1532'> +2.9629744e+11 </wgt>
<wgt id='1533'> +2.9336206e+11 </wgt>
<wgt id='1534'> +2.9668058e+11 </wgt>
<wgt id='1535'> +3.0085537e+11 </wgt>
<wgt id='1536'> +2.9552688e+11 </wgt>
<wgt id='1537'> +2.9856921e+11 </wgt>
<wgt id='1538'> +2.9491095e+11 </wgt>
<wgt id='1539'> +3.0388779e+11 </wgt>
<wgt id='1540'> +2.9809152e+11 </wgt>
<wgt id='1541'> +2.9913792e+11 </wgt>
<wgt id='1542'> +2.9825619e+11 </wgt>
<wgt id='1543'> +2.9960574e+11 </wgt>
<wgt id='1544'> +2.9639786e+11 </wgt>
<wgt id='1545'> +2.9622383e+11 </wgt>
<wgt id='1546'> +2.9431327e+11 </wgt>
<wgt id='1547'> +3.0055400e+11 </wgt>
<wgt id='1548'> +2.9652805e+11 </wgt>
<wgt id='1549'> +2.9474940e+11 </wgt>
<wgt id='1550'> +2.9943443e+11 </wgt>
<wgt id='1551'> +2.9882610e+11 </wgt>
<wgt id='1552'> +2.9789296e+11 </wgt>
<wgt id='1553'> +3.0095221e+11 </wgt>
<wgt id='1554'> +2.9818801e+11 </wgt>
<wgt id='1555'> +2.9898435e+11 </wgt>
<wgt id='1556'> +3.0053990e+11 </wgt>
<wgt id='1557'> +2.9735825e+11 </wgt>
<wgt id='1558'> +2.9841000e+11 </wgt>
<wgt id='1559'> +2.9591254e+11 </wgt>
<wgt id='1560'> +2.9696701e+11 </wgt>
<wgt id='1561'> +2.9517469e+11 </wgt>
<wgt id='1562'> +2.9681857e+11 </wgt>
<wgt id='1563'> +2.9834630e+11 </wgt>
<wgt id='1564'> +2.9781992e+11 </wgt>
<wgt id='1565'> +3.0046000e+11 </wgt>
<wgt id='1566'> +2.9822470e+11 </wgt>
<wgt id='1567'> +3.0123663e+11 </wgt>
<wgt id='1568'> +2.9814096e+11 </wgt>
<wgt id='1569'> +2.9781388e+11 </wgt>
<wgt id='1570'> +3.0483202e+11 </wgt>
<wgt id='1571'> +2.9814804e+11 </wgt>
<wgt id='1572'> +3.0027488e+11 </wgt>
<wgt id='1573'> +3.0169467e+11 </wgt>
<wgt id='1574'> +2.5943446e+11 </wgt>
<wgt id='1575'> +2.5950411e+11 </wgt>
<wgt id='1576'> +2.5936658e+11 </wgt>
<wgt id='1577'> +2.5945254e+11 </wgt>
<wgt id='1578'> +2.6003278e+11 </wgt>
<wgt id='1579'> +2.6027040e+11 </wgt>
<wgt id='1580'> +2.6003967e+11 </wgt>
<wgt id='1581'> +2.5887140e+11 </wgt>
<wgt id='1582'> +2.5858189e+11 </wgt>
<wgt id='1583'> +2.5898925e+11 </wgt>
<wgt id='1584'> +2.6000457e+11 </wgt>
<wgt id='1585'> +2.5964521e+11 </wgt>
<wgt id='1586'> +2.5850570e+11 </wgt>
<wgt id='1587'> +2.5871505e+11 </wgt>
<wgt id='1588'> +2.5823921e+11 </wgt>
<wgt id='1589'> +2.5915646e+11 </wgt>
<wgt id='1590'> +2.5926464e+11 </wgt>
<wgt id='1591'> +2.5950796e+11 </wgt>
<wgt id='1592'> +2.5842640e+11 </wgt>
<wgt id='1593'> +2.5847281e+11 </wgt>
<wgt id='1594'> +2.6035192e+11 </wgt>
<wgt id='1595'> +2.5707196e+11 </wgt>
<wgt id='1596'> +2.6330391e+11 </wgt>
<wgt id='1597'> +2.6120823e+11 </wgt>
<wgt id='1598'> +2.6139120e+11 </wgt>
<wgt id='1599'> +2.5657501e+11 </wgt>
<wgt id='1600'> +2.6406994e+11 </wgt>
<wgt id='1601'> +2.6158357e+11 </wgt>
<wgt id='1602'> +2.5947852e+11 </wgt>
<wgt id='1603'> +2.7136670e+11 </wgt>
<wgt id='1604'> +2.5956830e+11 </wgt>
</rwgt>
</event>
<event>
 9      1 +2.8343000e+11 1.40000100e+03 7.81738600e-03 7.88881100e-02
       21 -1    0    0  504  503 +0.0000000000e+00 +0.0000000000e+00 +5.9018777440e+02 5.9018777440e+02 0.0000000000e+00 0.0000e+00 -1.0000e+00
       21 -1    0    0  503  504 -0.0000000000e+00 -0.0000000000e+00 -8.3024498096e+02 8.3024498096e+02 0.0000000000e+00 0.0000e+00 -1.0000e+00
       45  2    1    2    0    0 +0.0000000000e+00 +0.0000000000e+00 -2.4005720655e+02 1.4204327554e+03 1.4000006250e+03 0.0000e+00 0.0000e+00
       25  2    3    3    0    0 -5.5279216032e+02 -4.0967855388e+02 -1.9026224994e+02 7.2473499878e+02 1.2500161872e+02 0.0000e+00 0.0000e+00
       35  2    3    3    0    0 +5.5279216032e+02 +4.0967855388e+02 -4.9794956612e+01 6.9569775658e+02 9.0000782113e+01 0.0000e+00 0.0000e+00
        5  1    5    5  501    0 +1.1281574416e+02 +6.1450362194e+01 -3.9543242317e+01 1.3448035155e+02 4.2140000000e+00 0.0000e+00 -1.0000e+00
       -5  1    5    5    0  501 +4.3997641616e+02 +3.4822819169e+02 -1.0251714295e+01 5.6121740503e+02 4.2140000000e+00 0.0000e+00 -1.0000e+00
        5  1    4    4  502    0 -3.8005184331e+02 -3.4950728750e+02 -1.4004205826e+02 5.3499933037e+02 4.2140000000e+00 0.0000e+00 -1.0000e+00
       -5  1    4    4    0  502 -1.7274031701e+02 -6.0171266381e+01 -5.0220191682e+01 1.8973566841e+02 4.2140000000e+00 0.0000e+00 -1.0000e+00
<mgrwt>
<rscale>  0 0.14000006E+04</rscale>
<asrwt>0</asrwt>
<pdfrwt beam="1">  1       21 0.90798120E-01 0.14000006E+04</pdfrwt>
<pdfrwt beam="2">  1       21 0.12773000E+00 0.14000006E+04</pdfrwt>
<totfact> 0.34983551E+02</totfact>
</mgrwt>
<rwgt>
<wgt id='1001'> +2.8343000e+11 </wgt>
<wgt id='1002'> +2.8378721e+11 </wgt>
<wgt id='1003'> +2.8378687e+11 </wgt>
<wgt id='1004'> +3.1822450e+11 </wgt>
<wgt id='1005'> +2.8343000e+11 </wgt>
<wgt id='1006'> +2.8343000e+11 </wgt>
<wgt id='1007'> +2.8378721e+11 </wgt>
<wgt id='1008'> +2.8378687e+11 </wgt>
<wgt id='1009'> +3.1822450e+11 </wgt>
<wgt id='1010'> +2.8343000e+11 </wgt>
<wgt id='1011'> +2.8343000e+11 </wgt>
<wgt id='1012'> +2.8378721e+11 </wgt>
<wgt id='1013'> +2.8378687e+11 </wgt>
<wgt id='1014'> +3.1822450e+11 </wgt>
<wgt id='1015'> +2.8343000e+11 </wgt>
<wgt id='1016'> +2.5460188e+11 </wgt>
<wgt id='1017'> +2.5490459e+11 </wgt>
<wgt id='1018'> +2.5490430e+11 </wgt>
<wgt id='1019'> +2.8378687e+11 </wgt>
<wgt id='1020'> +2.5460188e+11 </wgt>
<wgt id='1021'> +2.5460188e+11 </wgt>
<wgt id='1022'> +2.5490459e+11 </wgt>
<wgt id='1023'> +2.5490430e+11 </wgt>
<wgt id='1024'> +2.8378687e+11 </wgt>
<wgt id='1025'> +2.5460188e+11 </wgt>
<wgt id='1026'> +2.5460188e+11 </wgt>
<wgt id='1027'> +2.5490459e+11 </wgt>
<wgt id='1028'> +2.5490430e+11 </wgt>
<wgt id='1029'> +2.8378687e+11 </wgt>
<wgt id='1030'> +2.5460188e+11 </wgt>
<wgt id='1031'> +3.1779623e+11 </wgt>
<wgt id='1032'> +3.1822491e+11 </wgt>
<wgt id='1033'> +3.1822450e+11 </wgt>
<wgt id='1034'> +3.5962537e+11 </wgt>
<wgt id='1035'> +3.1779623e+11 </wgt>
<wgt id='1036'> +3.1779623e+11 </wgt>
<wgt id='1037'> +3.1822491e+11 </wgt>
<wgt id='1038'> +3.1822450e+11 </wgt>
<wgt id='1039'> +3.5962537e+11 </wgt>
<wgt id='1040'> +3.1779623e+11 </wgt>
<wgt id='1041'> +3.1779623e+11 </wgt>
<wgt id='1042'> +3.1822491e+11 </wgt>
<wgt id='1043'> +3.1822450e+11 </wgt>
<wgt id='1044'> +3.5962537e+11 </wgt>
<wgt id='1045'> +3.1779623e+11 </wgt>
<wgt id='1046'> +2.8343000e+11 </wgt>
<wgt id='1047'> +2.8343000e+11 </wgt>
<wgt id='1048'> +2.8343000e+11 </wgt>
<wgt id='1049'> +2.8235319e+11 </wgt>
<wgt id='1050'> +2.8309422e+11 </wgt>
<wgt id='1051'> +2.8364901e+11 </wgt>
<wgt id='1052'> +2.8424893e+11 </wgt>
<wgt id='1053'> +2.8186479e+11 </wgt>
<wgt id='1054'> +2.8385372e+11 </wgt>
<wgt id='1055'> +2.8225365e+11 </wgt>
<wgt id='1056'> +2.8187913e+11 </wgt>
<wgt id='1057'> +2.8412298e+11 </wgt>
<wgt id='1058'> +2.8302290e+11 </wgt>
<wgt id='1059'> +2.8538456e+11 </wgt>
<wgt id='1060'> +2.8366249e+11 </wgt>
<wgt id='1061'> +2.8415096e+11 </wgt>
<wgt id='1062'> +2.8404848e+11 </wgt>
<wgt id='1063'> +2.8378288e+11 </wgt>
<wgt id='1064'> +2.8458559e+11 </wgt>
<wgt id='1065'> +2.8483247e+11 </wgt>
<wgt id='1066'> +2.8183536e+11 </wgt>
<wgt id='1067'> +2.7998786e+11 </wgt>
<wgt id='1068'> +2.8370769e+11 </wgt>
<wgt id='1069'> +2.8270953e+11 </wgt>
<wgt id='1070'> +2.8353442e+11 </wgt>
<wgt id='1071'> +2.8462827e+11 </wgt>
<wgt id='1072'> +2.8122468e+11 </wgt>
<wgt id='1073'> +2.8404066e+11 </wgt>
<wgt id='1074'> +2.8317201e+11 </wgt>
<wgt id='1075'> +2.8444548e+11 </wgt>
<wgt id='1076'> +2.8288935e+11 </wgt>
<wgt id='1077'> +2.8277701e+11 </wgt>
<wgt id='1078'> +2.8410681e+11 </wgt>
<wgt id='1079'> +2.8187611e+11 </wgt>
<wgt id='1080'> +2.8285958e+11 </wgt>
<wgt id='1081'> +2.8298982e+11 </wgt>
<wgt id='1082'> +2.8207107e+11 </wgt>
<wgt id='1083'> +2.8395960e+11 </wgt>
<wgt id='1084'> +2.8405539e+11 </wgt>
<wgt id='1085'> +2.8283935e+11 </wgt>
<wgt id='1086'> +2.8287229e+11 </wgt>
<wgt id='1087'> +2.8308626e+11 </wgt>
<wgt id='1088'> +2.8294780e+11 </wgt>
<wgt id='1089'> +2.8279008e+11 </wgt>
<wgt id='1090'> +2.8414361e+11 </wgt>
<wgt id='1091'> +2.8351190e+11 </wgt>
<wgt id='1092'> +2.8367290e+11 </wgt>
<wgt id='1093'> +2.8331214e+11 </wgt>
<wgt id='1094'> +2.8286869e+11 </wgt>
<wgt id='1095'> +2.8355684e+11 </wgt>
<wgt id='1096'> +2.8335644e+11 </wgt>
<wgt id='1097'> +2.8302386e+11 </wgt>
<wgt id='1098'> +2.8308018e+11 </wgt>
<wgt id='1099'> +2.8319973e+11 </wgt>
<wgt id='1100'> +2.8401221e+11 </wgt>
<wgt id='1101'> +2.8340434e+11 </wgt>
<wgt id='1102'> +2.8327860e+11 </wgt>
<wgt id='1103'> +2.8310601e+11 </wgt>
<wgt id='1104'> +2.8310964e+11 </wgt>
<wgt id='1105'> +2.8354610e+11 </wgt>
<wgt id='1106'> +2.8374817e+11 </wgt>
<wgt id='1107'> +2.8332793e+11 </wgt>
<wgt id='1108'> +2.8333971e+11 </wgt>
<wgt id='1109'> +2.8322401e+11 </wgt>
<wgt id='1110'> +2.8375700e+11 </wgt>
<wgt id='1111'> +2.8356029e+11 </wgt>
<wgt id='1112'> +2.8339771e+11 </wgt>
<wgt id='1113'> +2.8374207e+11 </wgt>
<wgt id='1114'> +2.8311373e+11 </wgt>
<wgt id='1115'> +2.8323481e+11 </wgt>
<wgt id='1116'> +2.8375678e+11 </wgt>
<wgt id='1117'> +2.8336837e+11 </wgt>
<wgt id='1118'> +2.8352887e+11 </wgt>
<wgt id='1119'> +2.8324619e+11 </wgt>
<wgt id='1120'> +2.8327444e+11 </wgt>
<wgt id='1121'> +2.8348591e+11 </wgt>
<wgt id='1122'> +2.8322568e+11 </wgt>
<wgt id='1123'> +2.8337705e+11 </wgt>
<wgt id='1124'> +2.8335905e+11 </wgt>
<wgt id='1125'> +2.8358815e+11 </wgt>
<wgt id='1126'> +2.8353670e+11 </wgt>
<wgt id='1127'> +2.8332335e+11 </wgt>
<wgt id='1128'> +2.8346536e+11 </wgt>
<wgt id='1129'> +2.8337764e+11 </wgt>
<wgt id='1130'> +2.8345961e+11 </wgt>
<wgt id='1131'> +2.8370938e+11 </wgt>
<wgt id='1132'> +2.8334948e+11 </wgt>
<wgt id='1133'> +2.8350738e+11 </wgt>
<wgt id='1134'> +2.8340820e+11 </wgt>
<wgt id='1135'> +2.8347246e+11 </wgt>
<wgt id='1136'> +2.8338993e+11 </wgt>
<wgt id='1137'> +2.8327976e+11 </wgt>
<wgt id='1138'> +2.8354603e+11 </wgt>
<wgt id='1139'> +2.8347186e+11 </wgt>
<wgt id='1140'> +2.8363750e+11 </wgt>
<wgt id='1141'> +2.8329454e+11 </wgt>
<wgt id='1142'> +2.8350398e+11 </wgt>
<wgt id='1143'> +2.8359916e+11 </wgt>
<wgt id='1144'> +2.8334307e+11 </wgt>
<wgt id='1145'> +2.8355726e+11 </wgt>
<wgt id='1146'> +2.8341542e+11 </wgt>
<wgt id='1147'> +2.8347958e+11 </wgt>
<wgt id='1148'> +2.8343000e+11 </wgt>
<wgt id='1149'> +2.8343000e+11 </wgt>
<wgt id='1150'> +2.9242978e+11 </wgt>
<wgt id='1151'> +2.8069675e+11 </wgt>
<wgt id='1152'> +2.8402793e+11 </wgt>
<wgt id='1153'> +2.8746015e+11 </wgt>
<wgt id='1154'> +2.8684609e+11 </wgt>
<wgt id='1155'> +2.8888550e+11 </wgt>
<wgt id='1156'> +2.7669953e+11 </wgt>
<wgt id='1157'> +2.7622044e+11 </wgt>
<wgt id='1158'> +2.7752936e+11 </wgt>
<wgt id='1159'> +2.9681208e+11 </wgt>
<wgt id='1160'> +2.8200722e+11 </wgt>
<wgt id='1161'> +2.8551824e+11 </wgt>
<wgt id='1162'> +2.7771976e+11 </wgt>
<wgt id='1163'> +2.8668507e+11 </wgt>
<wgt id='1164'> +2.6808408e+11 </wgt>
<wgt id='1165'> +2.7892637e+11 </wgt>
<wgt id='1166'> +2.8469776e+11 </wgt>
<wgt id='1167'> +2.7959371e+11 </wgt>
<wgt id='1168'> +2.7627314e+11 </wgt>
<wgt id='1169'> +2.7587168e+11 </wgt>
<wgt id='1170'> +2.7726116e+11 </wgt>
<wgt id='1171'> +2.7332099e+11 </wgt>
<wgt id='1172'> +2.7721300e+11 </wgt>
<wgt id='1173'> +2.8757010e+11 </wgt>
<wgt id='1174'> +2.7925349e+11 </wgt>
<wgt id='1175'> +2.7562677e+11 </wgt>
<wgt id='1176'> +2.8635482e+11 </wgt>
<wgt id='1177'> +2.7899441e+11 </wgt>
<wgt id='1178'> +2.8309945e+11 </wgt>
<wgt id='1179'> +2.8043161e+11 </wgt>
<wgt id='1180'> +2.8533263e+11 </wgt>
<wgt id='1181'> +2.7810901e+11 </wgt>
<wgt id='1182'> +2.8132627e+11 </wgt>
<wgt id='1183'> +2.9500388e+11 </wgt>
<wgt id='1184'> +2.7813888e+11 </wgt>
<wgt id='1185'> +2.8228961e+11 </wgt>
<wgt id='1186'> +2.7244188e+11 </wgt>
<wgt id='1187'> +2.8544798e+11 </wgt>
<wgt id='1188'> +2.7919463e+11 </wgt>
<wgt id='1189'> +2.8508785e+11 </wgt>
<wgt id='1190'> +2.8380539e+11 </wgt>
<wgt id='1191'> +2.9457308e+11 </wgt>
<wgt id='1192'> +2.9144690e+11 </wgt>
<wgt id='1193'> +2.9484382e+11 </wgt>
<wgt id='1194'> +2.8414935e+11 </wgt>
<wgt id='1195'> +2.8370483e+11 </wgt>
<wgt id='1196'> +2.9224162e+11 </wgt>
<wgt id='1197'> +2.9364349e+11 </wgt>
<wgt id='1198'> +2.7651584e+11 </wgt>
<wgt id='1199'> +2.8299382e+11 </wgt>
<wgt id='1200'> +2.8285379e+11 </wgt>
<wgt id='1201'> +2.7936920e+11 </wgt>
<wgt id='1202'> +2.8840064e+11 </wgt>
<wgt id='1203'> +2.7797023e+11 </wgt>
<wgt id='1204'> +2.8762617e+11 </wgt>
<wgt id='1205'> +2.8481505e+11 </wgt>
<wgt id='1206'> +2.7684969e+11 </wgt>
<wgt id='1207'> +2.9282077e+11 </wgt>
<wgt id='1208'> +2.7247678e+11 </wgt>
<wgt id='1209'> +2.7919915e+11 </wgt>
<wgt id='1210'> +2.8088032e+11 </wgt>
<wgt id='1211'> +2.8576408e+11 </wgt>
<wgt id='1212'> +2.8353551e+11 </wgt>
<wgt id='1213'> +2.9291275e+11 </wgt>
<wgt id='1214'> +2.7580964e+11 </wgt>
<wgt id='1215'> +2.9125476e+11 </wgt>
<wgt id='1216'> +2.8572060e+11 </wgt>
<wgt id='1217'> +2.7600385e+11 </wgt>
<wgt id='1218'> +2.8473648e+11 </wgt>
<wgt id='1219'> +2.9427388e+11 </wgt>
<wgt id='1220'> +2.7731738e+11 </wgt>
<wgt id='1221'> +2.7519765e+11 </wgt>
<wgt id='1222'> +2.8010837e+11 </wgt>
<wgt id='1223'> +2.7262635e+11 </wgt>
<wgt id='1224'> +2.8346100e+11 </wgt>
<wgt id='1225'> +2.8820791e+11 </wgt>
<wgt id='1226'> +2.9015301e+11 </wgt>
<wgt id='1227'> +2.7388950e+11 </wgt>
<wgt id='1228'> +2.8144890e+11 </wgt>
<wgt id='1229'> +3.0269779e+11 </wgt>
<wgt id='1230'> +2.9364764e+11 </wgt>
<wgt id='1231'> +2.7892637e+11 </wgt>
<wgt id='1232'> +2.8882049e+11 </wgt>
<wgt id='1233'> +2.7787784e+11 </wgt>
<wgt id='1234'> +2.7636247e+11 </wgt>
<wgt id='1235'> +3.0252083e+11 </wgt>
<wgt id='1236'> +2.7661692e+11 </wgt>
<wgt id='1237'> +2.8961772e+11 </wgt>
<wgt id='1238'> +2.8882874e+11 </wgt>
<wgt id='1239'> +2.9126309e+11 </wgt>
<wgt id='1240'> +2.8471924e+11 </wgt>
<wgt id='1241'> +2.8226222e+11 </wgt>
<wgt id='1242'> +2.8057193e+11 </wgt>
<wgt id='1243'> +2.8855836e+11 </wgt>
<wgt id='1244'> +2.8157344e+11 </wgt>
<wgt id='1245'> +2.8153261e+11 </wgt>
<wgt id='1246'> +3.0691378e+11 </wgt>
<wgt id='1247'> +2.8336129e+11 </wgt>
<wgt id='1248'> +2.7502436e+11 </wgt>
<wgt id='1249'> +2.7736274e+11 </wgt>
<wgt id='1250'> +2.9217660e+11 </wgt>
<wgt id='1251'> +2.9848424e+11 </wgt>
<wgt id='1252'> +2.8683655e+11 </wgt>
<wgt id='1253'> +2.8519041e+11 </wgt>
<wgt id='1254'> +2.8822294e+11 </wgt>
<wgt id='1255'> +2.9794677e+11 </wgt>
<wgt id='1256'> +2.9578663e+11 </wgt>
<wgt id='1257'> +2.8675539e+11 </wgt>
<wgt id='1258'> +2.9916265e+11 </wgt>
<wgt id='1259'> +2.9481803e+11 </wgt>
<wgt id='1260'> +3.2509557e+11 </wgt>
<wgt id='1261'> +3.1334660e+11 </wgt>
<wgt id='1262'> +2.8949786e+11 </wgt>
<wgt id='1263'> +2.9652628e+11 </wgt>
<wgt id='1264'> +2.9846014e+11 </wgt>
<wgt id='1265'> +2.9795024e+11 </wgt>
<wgt id='1266'> +2.9464273e+11 </wgt>
<wgt id='1267'> +3.1745192e+11 </wgt>
<wgt id='1268'> +2.9341233e+11 </wgt>
<wgt id='1269'> +2.8678052e+11 </wgt>
<wgt id='1270'> +2.9200942e+11 </wgt>
<wgt id='1271'> +2.7794671e+11 </wgt>
<wgt id='1272'> +2.9289503e+11 </wgt>
<wgt id='1273'> +2.9133005e+11 </wgt>
<wgt id='1274'> +2.8704616e+11 </wgt>
<wgt id='1275'> +2.9777181e+11 </wgt>
<wgt id='1276'> +2.9554489e+11 </wgt>
<wgt id='1277'> +2.9088103e+11 </wgt>
<wgt id='1278'> +2.8748192e+11 </wgt>
<wgt id='1279'> +2.8067552e+11 </wgt>
<wgt id='1280'> +2.9261164e+11 </wgt>
<wgt id='1281'> +2.8529391e+11 </wgt>
<wgt id='1282'> +2.9609527e+11 </wgt>
<wgt id='1283'> +2.9662050e+11 </wgt>
<wgt id='1284'> +3.1396265e+11 </wgt>
<wgt id='1285'> +3.0777387e+11 </wgt>
<wgt id='1286'> +3.2828746e+11 </wgt>
<wgt id='1287'> +3.0293579e+11 </wgt>
<wgt id='1288'> +3.2375120e+11 </wgt>
<wgt id='1289'> +3.1264461e+11 </wgt>
<wgt id='1290'> +3.1105286e+11 </wgt>
<wgt id='1291'> +2.7748477e+11 </wgt>
<wgt id='1292'> +2.9738842e+11 </wgt>
<wgt id='1293'> +3.0003137e+11 </wgt>
<wgt id='1294'> +3.1441715e+11 </wgt>
<wgt id='1295'> +2.9912533e+11 </wgt>
<wgt id='1296'> +3.1576433e+11 </wgt>
<wgt id='1297'> +2.9482471e+11 </wgt>
<wgt id='1298'> +2.8729479e+11 </wgt>
<wgt id='1299'> +2.9856794e+11 </wgt>
<wgt id='1300'> +2.8774935e+11 </wgt>
<wgt id='1301'> +2.8022191e+11 </wgt>
<wgt id='1302'> +2.7643771e+11 </wgt>
<wgt id='1303'> +2.9825583e+11 </wgt>
<wgt id='1304'> +3.0691094e+11 </wgt>
<wgt id='1305'> +2.9794942e+11 </wgt>
<wgt id='1306'> +3.0483009e+11 </wgt>
<wgt id='1307'> +3.0221559e+11 </wgt>
<wgt id='1308'> +3.2523508e+11 </wgt>
<wgt id='1309'> +2.9565090e+11 </wgt>
<wgt id='1310'> +3.0178485e+11 </wgt>
<wgt id='1311'> +3.0690425e+11 </wgt>
<wgt id='1312'> +2.9938280e+11 </wgt>
<wgt id='1313'> +2.9686894e+11 </wgt>
<wgt id='1314'> +3.0310329e+11 </wgt>
<wgt id='1315'> +2.8470635e+11 </wgt>
<wgt id='1316'> +2.9827575e+11 </wgt>
<wgt id='1317'> +3.0140959e+11 </wgt>
<wgt id='1318'> +2.8662235e+11 </wgt>
<wgt id='1319'> +3.0628614e+11 </wgt>
<wgt id='1320'> +3.0919082e+11 </wgt>
<wgt id='1321'> +2.9361443e+11 </wgt>
<wgt id='1322'> +2.9763063e+11 </wgt>
<wgt id='1323'> +2.9767688e+11 </wgt>
<wgt id='1324'> +3.0112218e+11 </wgt>
<wgt id='1325'> +3.1058866e+11 </wgt>
<wgt id='1326'> +3.0293956e+11 </wgt>
<wgt id='1327'> +2.9447346e+11 </wgt>
<wgt id='1328'> +3.0155699e+11 </wgt>
<wgt id='1329'> +2.9735982e+11 </wgt>
<wgt id='1330'> +2.8993763e+11 </wgt>
<wgt id='1331'> +3.1902946e+11 </wgt>
<wgt id='1332'> +2.8624198e+11 </wgt>
<wgt id='1333'> +3.0033923e+11 </wgt>
<wgt id='1334'> +3.1354505e+11 </wgt>
<wgt id='1335'> +2.9218332e+11 </wgt>
<wgt id='1336'> +3.0275737e+11 </wgt>
<wgt id='1337'> +3.0807761e+11 </wgt>
<wgt id='1338'> +2.8928640e+11 </wgt>
<wgt id='1339'> +3.1961161e+11 </wgt>
<wgt id='1340'> +3.0141877e+11 </wgt>
<wgt id='1341'> +3.0537041e+11 </wgt>
<wgt id='1342'> +3.1430935e+11 </wgt>
<wgt id='1343'> +3.0967520e+11 </wgt>
<wgt id='1344'> +3.0402877e+11 </wgt>
<wgt id='1345'> +2.7859233e+11 </wgt>
<wgt id='1346'> +2.9939245e+11 </wgt>
<wgt id='1347'> +2.8667362e+11 </wgt>
<wgt id='1348'> +2.8756205e+11 </wgt>
<wgt id='1349'> +2.8904477e+11 </wgt>
<wgt id='1350'> +3.0043682e+11 </wgt>
<wgt id='1351'> +2.9597182e+11 </wgt>
<wgt id='1352'> +3.0026704e+11 </wgt>
<wgt id='1353'> +2.9694125e+11 </wgt>
<wgt id='1354'> +3.0660921e+11 </wgt>
<wgt id='1355'> +2.7578199e+11 </wgt>
<wgt id='1356'> +2.7852871e+11 </wgt>
<wgt id='1357'> +2.7658161e+11 </wgt>
<wgt id='1358'> +2.7326091e+11 </wgt>
<wgt id='1359'> +2.7647363e+11 </wgt>
<wgt id='1360'> +2.6916050e+11 </wgt>
<wgt id='1361'> +2.7572967e+11 </wgt>
<wgt id='1362'> +2.7806485e+11 </wgt>
<wgt id='1363'> +2.6988153e+11 </wgt>
<wgt id='1364'> +2.8185600e+11 </wgt>
<wgt id='1365'> +2.7346405e+11 </wgt>
<wgt id='1366'> +2.7558248e+11 </wgt>
<wgt id='1367'> +2.7659906e+11 </wgt>
<wgt id='1368'> +2.7585191e+11 </wgt>
<wgt id='1369'> +2.7984414e+11 </wgt>
<wgt id='1370'> +2.7391675e+11 </wgt>
<wgt id='1371'> +2.7376855e+11 </wgt>
<wgt id='1372'> +2.8013545e+11 </wgt>
<wgt id='1373'> +2.7937110e+11 </wgt>
<wgt id='1374'> +2.6768248e+11 </wgt>
<wgt id='1375'> +2.7485737e+11 </wgt>
<wgt id='1376'> +2.7652783e+11 </wgt>
<wgt id='1377'> +2.7581542e+11 </wgt>
<wgt id='1378'> +2.7185253e+11 </wgt>
<wgt id='1379'> +2.7425001e+11 </wgt>
<wgt id='1380'> +2.7410131e+11 </wgt>
<wgt id='1381'> +2.8107125e+11 </wgt>
<wgt id='1382'> +2.7536909e+11 </wgt>
<wgt id='1383'> +2.7555978e+11 </wgt>
<wgt id='1384'> +2.7401320e+11 </wgt>
<wgt id='1385'> +2.7411237e+11 </wgt>
<wgt id='1386'> +2.7749282e+11 </wgt>
<wgt id='1387'> +2.7471814e+11 </wgt>
<wgt id='1388'> +2.7196600e+11 </wgt>
<wgt id='1389'> +2.7419459e+11 </wgt>
<wgt id='1390'> +2.7497755e+11 </wgt>
<wgt id='1391'> +2.7352746e+11 </wgt>
<wgt id='1392'> +2.7360212e+11 </wgt>
<wgt id='1393'> +2.7395601e+11 </wgt>
<wgt id='1394'> +2.7354239e+11 </wgt>
<wgt id='1395'> +2.7147795e+11 </wgt>
<wgt id='1396'> +2.7676970e+11 </wgt>
<wgt id='1397'> +2.7642615e+11 </wgt>
<wgt id='1398'> +2.7649628e+11 </wgt>
<wgt id='1399'> +2.7155369e+11 </wgt>
<wgt id='1400'> +2.7271012e+11 </wgt>
<wgt id='1401'> +2.7448364e+11 </wgt>
<wgt id='1402'> +2.7899470e+11 </wgt>
<wgt id='1403'> +2.7916687e+11 </wgt>
<wgt id='1404'> +2.7393624e+11 </wgt>
<wgt id='1405'> +2.8190285e+11 </wgt>
<wgt id='1406'> +2.7568864e+11 </wgt>
<wgt id='1407'> +2.7642873e+11 </wgt>
<wgt id='1408'> +2.7909158e+11 </wgt>
<wgt id='1409'> +2.7355396e+11 </wgt>
<wgt id='1410'> +2.7305469e+11 </wgt>
<wgt id='1411'> +2.7547030e+11 </wgt>
<wgt id='1412'> +2.7454273e+11 </wgt>
<wgt id='1413'> +2.7275431e+11 </wgt>
<wgt id='1414'> +2.7760086e+11 </wgt>
<wgt id='1415'> +2.8136270e+11 </wgt>
<wgt id='1416'> +2.7884923e+11 </wgt>
<wgt id='1417'> +2.6935044e+11 </wgt>
<wgt id='1418'> +2.7731227e+11 </wgt>
<wgt id='1419'> +2.7937559e+11 </wgt>
<wgt id='1420'> +2.7494996e+11 </wgt>
<wgt id='1421'> +2.8184116e+11 </wgt>
<wgt id='1422'> +2.6830282e+11 </wgt>
<wgt id='1423'> +2.8100429e+11 </wgt>
<wgt id='1424'> +2.7684743e+11 </wgt>
<wgt id='1425'> +2.7605905e+11 </wgt>
<wgt id='1426'> +2.7917725e+11 </wgt>
<wgt id='1427'> +2.7571060e+11 </wgt>
<wgt id='1428'> +2.7559289e+11 </wgt>
<wgt id='1429'> +2.7198980e+11 </wgt>
<wgt id='1430'> +2.7112151e+11 </wgt>
<wgt id='1431'> +2.7099254e+11 </wgt>
<wgt id='1432'> +2.7749278e+11 </wgt>
<wgt id='1433'> +2.7621268e+11 </wgt>
<wgt id='1434'> +2.8260164e+11 </wgt>
<wgt id='1435'> +2.7488210e+11 </wgt>
<wgt id='1436'> +2.7986378e+11 </wgt>
<wgt id='1437'> +2.7824166e+11 </wgt>
<wgt id='1438'> +2.7394102e+11 </wgt>
<wgt id='1439'> +2.7676765e+11 </wgt>
<wgt id='1440'> +2.8021356e+11 </wgt>
<wgt id='1441'> +2.7546184e+11 </wgt>
<wgt id='1442'> +2.8319138e+11 </wgt>
<wgt id='1443'> +2.7391011e+11 </wgt>
<wgt id='1444'> +2.7441480e+11 </wgt>
<wgt id='1445'> +2.7857857e+11 </wgt>
<wgt id='1446'> +2.7829140e+11 </wgt>
<wgt id='1447'> +2.7191899e+11 </wgt>
<wgt id='1448'> +2.7815088e+11 </wgt>
<wgt id='1449'> +2.7729411e+11 </wgt>
<wgt id='1450'> +2.7402958e+11 </wgt>
<wgt id='1451'> +2.7707642e+11 </wgt>
<wgt id='1452'> +2.7884943e+11 </wgt>
<wgt id='1453'> +2.8044780e+11 </wgt>
<wgt id='1454'> +2.6904796e+11 </wgt>
<wgt id='1455'> +2.7499039e+11 </wgt>
<wgt id='1456'> +2.7500185e+11 </wgt>
<wgt id='1457'> +2.7457241e+11 </wgt>
<wgt id='1458'> +2.7788462e+11 </wgt>
<wgt id='1459'> +3.0568315e+11 </wgt>
<wgt id='1460'> +3.0098753e+11 </wgt>
<wgt id='1461'> +3.4876116e+11 </wgt>
<wgt id='1462'> +2.9972132e+11 </wgt>
<wgt id='1463'> +2.9996974e+11 </wgt>
<wgt id='1464'> +2.9940276e+11 </wgt>
<wgt id='1465'> +2.9978308e+11 </wgt>
<wgt id='1466'> +2.9966493e+11 </wgt>
<wgt id='1467'> +2.9988183e+11 </wgt>
<wgt id='1468'> +2.9945801e+11 </wgt>
<wgt id='1469'> +2.9927175e+11 </wgt>
<wgt id='1470'> +3.0008649e+11 </wgt>
<wgt id='1471'> +3.0019835e+11 </wgt>
<wgt id='1472'> +2.9923002e+11 </wgt>
<wgt id='1473'> +3.0087456e+11 </wgt>
<wgt id='1474'> +2.9861367e+11 </wgt>
<wgt id='1475'> +3.0082140e+11 </wgt>
<wgt id='1476'> +2.9894140e+11 </wgt>
<wgt id='1477'> +2.9914910e+11 </wgt>
<wgt id='1478'> +3.0105803e+11 </wgt>
<wgt id='1479'> +2.9915742e+11 </wgt>
<wgt id='1480'> +3.0011520e+11 </wgt>
<wgt id='1481'> +2.9929618e+11 </wgt>
<wgt id='1482'> +3.0029471e+11 </wgt>
<wgt id='1483'> +2.9981819e+11 </wgt>
<wgt id='1484'> +2.9958385e+11 </wgt>
<wgt id='1485'> +2.9992346e+11 </wgt>
<wgt id='1486'> +2.9923457e+11 </wgt>
<wgt id='1487'> +2.9997259e+11 </wgt>
<wgt id='1488'> +2.9940550e+11 </wgt>
<wgt id='1489'> +2.9936891e+11 </wgt>
<wgt id='1490'> +3.0067672e+11 </wgt>
<wgt id='1491'> +3.0464522e+11 </wgt>
<wgt id='1492'> +2.9697327e+11 </wgt>
<wgt id='1493'> +2.9621606e+11 </wgt>
<wgt id='1494'> +3.1070737e+11 </wgt>
<wgt id='1495'> +2.9908035e+11 </wgt>
<wgt id='1496'> +3.0040886e+11 </wgt>
<wgt id='1497'> +2.9992027e+11 </wgt>
<wgt id='1498'> +2.9944944e+11 </wgt>
<wgt id='1499'> +3.0159610e+11 </wgt>
<wgt id='1500'> +2.9869575e+11 </wgt>
<wgt id='1501'> +3.0018410e+11 </wgt>
<wgt id='1502'> +2.9849482e+11 </wgt>
<wgt id='1503'> +2.9656019e+11 </wgt>
<wgt id='1504'> +3.0308077e+11 </wgt>
<wgt id='1505'> +3.0073876e+11 </wgt>
<wgt id='1506'> +2.9874311e+11 </wgt>
<wgt id='1507'> +3.0108113e+11 </wgt>
<wgt id='1508'> +2.9886194e+11 </wgt>
<wgt id='1509'> +3.0030086e+11 </wgt>
<wgt id='1510'> +2.9723387e+11 </wgt>
<wgt id='1511'> +3.0083486e+11 </wgt>
<wgt id='1512'> +2.9940466e+11 </wgt>
<wgt id='1513'> +2.9964086e+11 </wgt>
<wgt id='1514'> +2.9979625e+11 </wgt>
<wgt id='1515'> +3.0216356e+11 </wgt>
<wgt id='1516'> +3.0015937e+11 </wgt>
<wgt id='1517'> +2.9934533e+11 </wgt>
<wgt id='1518'> +3.0003667e+11 </wgt>
<wgt id='1519'> +2.9808436e+11 </wgt>
<wgt id='1520'> +3.0088626e+11 </wgt>
<wgt id='1521'> +2.9894340e+11 </wgt>
<wgt id='1522'> +3.0018721e+11 </wgt>
<wgt id='1523'> +3.0107983e+11 </wgt>
<wgt id='1524'> +3.0108614e+11 </wgt>
<wgt id='1525'> +3.0094644e+11 </wgt>
<wgt id='1526'> +3.0051878e+11 </wgt>
<wgt id='1527'> +2.9972132e+11 </wgt>
<wgt id='1528'> +2.9952117e+11 </wgt>
<wgt id='1529'> +2.9939944e+11 </wgt>
<wgt id='1530'> +2.9564978e+11 </wgt>
<wgt id='1531'> +2.9683068e+11 </wgt>
<wgt id='1532'> +2.9444365e+11 </wgt>
<wgt id='1533'> +2.9236420e+11 </wgt>
<wgt id='1534'> +2.9521290e+11 </wgt>
<wgt id='1535'> +2.9929235e+11 </wgt>
<wgt id='1536'> +2.9390444e+11 </wgt>
<wgt id='1537'> +2.9673341e+11 </wgt>
<wgt id='1538'> +2.9366895e+11 </wgt>
<wgt id='1539'> +3.0298366e+11 </wgt>
<wgt id='1540'> +2.9603226e+11 </wgt>
<wgt id='1541'> +2.9707736e+11 </wgt>
<wgt id='1542'> +2.9675780e+11 </wgt>
<wgt id='1543'> +2.9792087e+11 </wgt>
<wgt id='1544'> +2.9492081e+11 </wgt>
<wgt id='1545'> +2.9486243e+11 </wgt>
<wgt id='1546'> +2.9291206e+11 </wgt>
<wgt id='1547'> +2.9913272e+11 </wgt>
<wgt id='1548'> +2.9484993e+11 </wgt>
<wgt id='1549'> +2.9345082e+11 </wgt>
<wgt id='1550'> +2.9750782e+11 </wgt>
<wgt id='1551'> +2.9745916e+11 </wgt>
<wgt id='1552'> +2.9619001e+11 </wgt>
<wgt id='1553'> +2.9873159e+11 </wgt>
<wgt id='1554'> +2.9668020e+11 </wgt>
<wgt id='1555'> +2.9744706e+11 </wgt>
<wgt id='1556'> +2.9920635e+11 </wgt>
<wgt id='1557'> +2.9595087e+11 </wgt>
<wgt id='1558'> +2.9683242e+11 </wgt>
<wgt id='1559'> +2.9477225e+11 </wgt>
<wgt id='1560'> +2.9559893e+11 </wgt>
<wgt id='1561'> +2.9300732e+11 </wgt>
<wgt id='1562'> +2.9541474e+11 </wgt>
<wgt id='1563'> +2.9678353e+11 </wgt>
<wgt id='1564'> +2.9642583e+11 </wgt>
<wgt id='1565'> +2.9899058e+11 </wgt>
<wgt id='1566'> +2.9705231e+11 </wgt>
<wgt id='1567'> +3.0036967e+11 </wgt>
<wgt id='1568'> +2.9677079e+11 </wgt>
<wgt id='1569'> +2.9646948e+11 </wgt>
<wgt id='1570'> +2.9970458e+11 </wgt>
<wgt id='1571'> +2.9660881e+11 </wgt>
<wgt id='1572'> +2.9862153e+11 </wgt>
<wgt id='1573'> +2.9974669e+11 </wgt>
<wgt id='1574'> +2.6740928e+11 </wgt>
<wgt id='1575'> +2.6748209e+11 </wgt>
<wgt id='1576'> +2.6734126e+11 </wgt>
<wgt id='1577'> +2.6742769e+11 </wgt>
<wgt id='1578'> +2.6802377e+11 </wgt>
<wgt id='1579'> +2.6827558e+11 </wgt>
<wgt id='1580'> +2.6804801e+11 </wgt>
<wgt id='1581'> +2.6678146e+11 </wgt>
<wgt id='1582'> +2.6647364e+11 </wgt>
<wgt id='1583'> +2.6696043e+11 </wgt>
<wgt id='1584'> +2.6799299e+11 </wgt>
<wgt id='1585'> +2.6760013e+11 </wgt>
<wgt id='1586'> +2.6638533e+11 </wgt>
<wgt id='1587'> +2.6664168e+11 </wgt>
<wgt id='1588'> +2.6613688e+11 </wgt>
<wgt id='1589'> +2.6715396e+11 </wgt>
<wgt id='1590'> +2.6722285e+11 </wgt>
<wgt id='1591'> +2.6747770e+11 </wgt>
<wgt id='1592'> +2.6637303e+11 </wgt>
<wgt id='1593'> +2.6653437e+11 </wgt>
<wgt id='1594'> +2.6823082e+11 </wgt>
<wgt id='1595'> +2.6516027e+11 </wgt>
<wgt id='1596'> +2.7101723e+11 </wgt>
<wgt id='1597'> +2.6915195e+11 </wgt>
<wgt id='1598'> +2.6937488e+11 </wgt>
<wgt id='1599'> +2.6465134e+11 </wgt>
<wgt id='1600'> +2.7185345e+11 </wgt>
<wgt id='1601'> +2.6955519e+11 </wgt>
<wgt id='1602'> +2.6746636e+11 </wgt>
<wgt id='1603'> +2.7799182e+11 </wgt>
<wgt id='1604'> +2.6741083e+11 </wgt>
</rwgt>
</event>
<event>
 9      1 +2.8343000e+11 1.39999900e+03 7.81738600e-03 7.88881300e-02
       21 -1    0    0  504  503 +0.0000000000e+00 +0.0000000000e+00 +1.6603091588e+03 1.6603091588e+03 0.0000000000e+00 0.0000e+00 -1.0000e+00
       21 -1    0    0  503  504 -0.0000000000e+00 -0.0000000000e+00 -2.9512513005e+02 2.9512513005e+02 0.0000000000e+00 0.0000e+00 -1.0000e+00
       45  2    1    2    0    0 +5.6843418861e-14 +0.0000000000e+00 +1.3651840287e+03 1.9554342888e+03 1.3999985092e+03 0.0000e+00 0.0000e+00
       25  2    3    3    0    0 -3.4054491370e+02 -4.2180725479e+02 +1.2847563601e+03 1.4000415689e+03 1.2500116516e+02 0.0000e+00 0.0000e+00
       35  2    3    3    0    0 +3.4054491370e+02 +4.2180725479e+02 +8.0427668610e+01 5.5539271995e+02 9.0001472517e+01 0.0000e+00 0.0000e+00
        5  1    5    5  501    0 +2.5462692194e+02 +2.7080022807e+02 +8.5854539457e+01 3.8151853512e+02 4.2140000000e+00 0.0000e+00 -1.0000e+00
       -5  1    5    5    0  501 +8.5917991757e+01 +1.5100702671e+02 -5.4268708467e+00 1.7387418482e+02 4.2140000000e+00 0.0000e+00 -1.0000e+00
        5  1    4    4  502    0 -8.1320272838e+01 -1.2999970704e+02 +5.0904123883e+02 5.3165181390e+02 4.2140000000e+00 0.0000e+00 1.0000e+00
       -5  1    4    4    0  502 -2.5922464086e+02 -2.9180754775e+02 +7.7571512130e+02 8.6838975498e+02 4.2140000000e+00 0.0000e+00 1.0000e+00
<mgrwt>
<rscale>  0 0.13999985E+04</rscale>
<asrwt>0</asrwt>
<pdfrwt beam="1">  1       21 0.25543217E+00 0.13999985E+04</pdfrwt>
<pdfrwt beam="2">  1       21 0.45403867E-01 0.13999985E+04</pdfrwt>
<totfact> 0.17674223E+02</totfact>
</mgrwt>
<rwgt>
<wgt id='1001'> +2.8343000e+11 </wgt>
<wgt id='1002'> +2.9589819e+11 </wgt>
<wgt id='1003'> +2.9589477e+11 </wgt>
<wgt id='1004'> +3.3516633e+11 </wgt>
<wgt id='1005'> +2.8343000e+11 </wgt>
<wgt id='1006'> +2.8343000e+11 </wgt>
<wgt id='1007'> +2.9589819e+11 </wgt>
<wgt id='1008'> +2.9589477e+11 </wgt>
<wgt id='1009'> +3.3516633e+11 </wgt>
<wgt id='1010'> +2.8343000e+11 </wgt>
<wgt id='1011'> +2.8343000e+11 </wgt>
<wgt id='1012'> +2.9589819e+11 </wgt>
<wgt id='1013'> +2.9589477e+11 </wgt>
<wgt id='1014'> +3.3516633e+11 </wgt>
<wgt id='1015'> +2.8343000e+11 </wgt>
<wgt id='1016'> +2.5285657e+11 </wgt>
<wgt id='1017'> +2.6331333e+11 </wgt>
<wgt id='1018'> +2.6331047e+11 </wgt>
<wgt id='1019'> +2.9589477e+11 </wgt>
<wgt id='1020'> +2.5285657e+11 </wgt>
<wgt id='1021'> +2.5285657e+11 </wgt>
<wgt id='1022'> +2.6331333e+11 </wgt>
<wgt id='1023'> +2.6331047e+11 </wgt>
<wgt id='1024'> +2.9589477e+11 </wgt>
<wgt id='1025'> +2.5285657e+11 </wgt>
<wgt id='1026'> +2.5285657e+11 </wgt>
<wgt id='1027'> +2.6331333e+11 </wgt>
<wgt id='1028'> +2.6331047e+11 </wgt>
<wgt id='1029'> +2.9589477e+11 </wgt>
<wgt id='1030'> +2.5285657e+11 </wgt>
<wgt id='1031'> +3.2009754e+11 </wgt>
<wgt id='1032'> +3.3517047e+11 </wgt>
<wgt id='1033'> +3.3516633e+11 </wgt>
<wgt id='1034'> +3.8291519e+11 </wgt>
<wgt id='1035'> +3.2009754e+11 </wgt>
<wgt id='1036'> +3.2009754e+11 </wgt>
<wgt id='1037'> +3.3517047e+11 </wgt>
<wgt id='1038'> +3.3516633e+11 </wgt>
<wgt id='1039'> +3.8291519e+11 </wgt>
<wgt id='1040'> +3.2009754e+11 </wgt>
<wgt id='1041'> +3.2009754e+11 </wgt>
<wgt id='1042'> +3.3517047e+11 </wgt>
<wgt id='1043'> +3.3516633e+11 </wgt>
<wgt id='1044'> +3.8291519e+11 </wgt>
<wgt id='1045'> +3.2009754e+11 </wgt>
<wgt id='1046'> +2.8343000e+11 </wgt>
<wgt id='1047'> +2.8343000e+11 </wgt>
<wgt id='1048'> +2.8343000e+11 </wgt>
<wgt id='1049'> +2.8312749e+11 </wgt>
<wgt id='1050'> +2.8298238e+11 </wgt>
<wgt id='1051'> +2.8359341e+11 </wgt>
<wgt id='1052'> +2.8381378e+11 </wgt>
<wgt id='1053'> +2.8147766e+11 </wgt>
<wgt id='1054'> +2.8437275e+11 </wgt>
<wgt id='1055'> +2.8196774e+11 </wgt>
<wgt id='1056'> +2.8161593e+11 </wgt>
<wgt id='1057'> +2.8217052e+11 </wgt>
<wgt id='1058'> +2.8255164e+11 </wgt>
<wgt id='1059'> +2.8587223e+11 </wgt>
<wgt id='1060'> +2.8344636e+11 </wgt>
<wgt id='1061'> +2.8425825e+11 </wgt>
<wgt id='1062'> +2.8439586e+11 </wgt>
<wgt id='1063'> +2.8473195e+11 </wgt>
<wgt id='1064'> +2.8440379e+11 </wgt>
<wgt id='1065'> +2.8526239e+11 </wgt>
<wgt id='1066'> +2.8205184e+11 </wgt>
<wgt id='1067'> +2.8227756e+11 </wgt>
<wgt id='1068'> +2.8417397e+11 </wgt>
<wgt id='1069'> +2.8241992e+11 </wgt>
<wgt id='1070'> +2.8392694e+11 </wgt>
<wgt id='1071'> +2.8334154e+11 </wgt>
<wgt id='1072'> +2.8399857e+11 </wgt>
<wgt id='1073'> +2.8198545e+11 </wgt>
<wgt id='1074'> +2.8230503e+11 </wgt>
<wgt id='1075'> +2.8254127e+11 </wgt>
<wgt id='1076'> +2.8268462e+11 </wgt>
<wgt id='1077'> +2.8169053e+11 </wgt>
<wgt id='1078'> +2.8327992e+11 </wgt>
<wgt id='1079'> +2.8249135e+11 </wgt>
<wgt id='1080'> +2.8255106e+11 </wgt>
<wgt id='1081'> +2.8317981e+11 </wgt>
<wgt id='1082'> +2.8320877e+11 </wgt>
<wgt id='1083'> +2.8432803e+11 </wgt>
<wgt id='1084'> +2.8396526e+11 </wgt>
<wgt id='1085'> +2.8222639e+11 </wgt>
<wgt id='1086'> +2.8456996e+11 </wgt>
<wgt id='1087'> +2.8373272e+11 </wgt>
<wgt id='1088'> +2.8256323e+11 </wgt>
<wgt id='1089'> +2.8257675e+11 </wgt>
<wgt id='1090'> +2.8431430e+11 </wgt>
<wgt id='1091'> +2.8373414e+11 </wgt>
<wgt id='1092'> +2.8363404e+11 </wgt>
<wgt id='1093'> +2.8335988e+11 </wgt>
<wgt id='1094'> +2.8186136e+11 </wgt>
<wgt id='1095'> +2.8385260e+11 </wgt>
<wgt id='1096'> +2.8344055e+11 </wgt>
<wgt id='1097'> +2.8266879e+11 </wgt>
<wgt id='1098'> +2.8307798e+11 </wgt>
<wgt id='1099'> +2.8331144e+11 </wgt>
<wgt id='1100'> +2.8392870e+11 </wgt>
<wgt id='1101'> +2.8337061e+11 </wgt>
<wgt id='1102'> +2.8323960e+11 </wgt>
<wgt id='1103'> +2.8224237e+11 </wgt>
<wgt id='1104'> +2.8358781e+11 </wgt>
<wgt id='1105'> +2.8356270e+11 </wgt>
<wgt id='1106'> +2.8391799e+11 </wgt>
<wgt id='1107'> +2.8385246e+11 </wgt>
<wgt id='1108'> +2.8314814e+11 </wgt>
<wgt id='1109'> +2.8341160e+11 </wgt>
<wgt id='1110'> +2.8359214e+11 </wgt>
<wgt id='1111'> +2.8401131e+11 </wgt>
<wgt id='1112'> +2.8320874e+11 </wgt>
<wgt id='1113'> +2.8380844e+11 </wgt>
<wgt id='1114'> +2.8312168e+11 </wgt>
<wgt id='1115'> +2.8266882e+11 </wgt>
<wgt id='1116'> +2.8440506e+11 </wgt>
<wgt id='1117'> +2.8329816e+11 </wgt>
<wgt id='1118'> +2.8395891e+11 </wgt>
<wgt id='1119'> +2.8280794e+11 </wgt>
<wgt id='1120'> +2.8275496e+11 </wgt>
<wgt id='1121'> +2.8345581e+11 </wgt>
<wgt id='1122'> +2.8284646e+11 </wgt>
<wgt id='1123'> +2.8337612e+11 </wgt>
<wgt id='1124'> +2.8361278e+11 </wgt>
<wgt id='1125'> +2.8363117e+11 </wgt>
<wgt id='1126'> +2.8357455e+11 </wgt>
<wgt id='1127'> +2.8334266e+11 </wgt>
<wgt id='1128'> +2.8330323e+11 </wgt>
<wgt id='1129'> +2.8314014e+11 </wgt>
<wgt id='1130'> +2.8345458e+11 </wgt>
<wgt id='1131'> +2.8419108e+11 </wgt>
<wgt id='1132'> +2.8325093e+11 </wgt>
<wgt id='1133'> +2.8364527e+11 </wgt>
<wgt id='1134'> +2.8334830e+11 </wgt>
<wgt id='1135'> +2.8348613e+11 </wgt>
<wgt id='1136'> +2.8321808e+11 </wgt>
<wgt id='1137'> +2.8310930e+11 </wgt>
<wgt id='1138'> +2.8360687e+11 </wgt>
<wgt id='1139'> +2.8365400e+11 </wgt>
<wgt id='1140'> +2.8376586e+11 </wgt>
<wgt id='1141'> +2.8305557e+11 </wgt>
<wgt id='1142'> +2.8347592e+11 </wgt>
<wgt id='1143'> +2.8369850e+11 </wgt>
<wgt id='1144'> +2.8333087e+11 </wgt>
<wgt id='1145'> +2.8364238e+11 </wgt>
<wgt id='1146'> +2.8357959e+11 </wgt>
<wgt id='1147'> +2.8351372e+11 </wgt>
<wgt id='1148'> +2.8343000e+11 </wgt>
<wgt id='1149'> +2.8343000e+11 </wgt>
<wgt id='1150'> +2.8992042e+11 </wgt>
<wgt id='1151'> +2.7712761e+11 </wgt>
<wgt id='1152'> +2.7317829e+11 </wgt>
<wgt id='1153'> +2.8550550e+11 </wgt>
<wgt id='1154'> +2.7547390e+11 </wgt>
<wgt id='1155'> +2.9971910e+11 </wgt>
<wgt id='1156'> +2.8431523e+11 </wgt>
<wgt id='1157'> +2.7934395e+11 </wgt>
<wgt id='1158'> +2.7786490e+11 </wgt>
<wgt id='1159'> +2.8958856e+11 </wgt>
<wgt id='1160'> +2.8052399e+11 </wgt>
<wgt id='1161'> +2.9782747e+11 </wgt>
<wgt id='1162'> +2.8636907e+11 </wgt>
<wgt id='1163'> +2.8829815e+11 </wgt>
<wgt id='1164'> +2.7324921e+11 </wgt>
<wgt id='1165'> +2.7364318e+11 </wgt>
<wgt id='1166'> +2.8374241e+11 </wgt>
<wgt id='1167'> +2.7978985e+11 </wgt>
<wgt id='1168'> +2.7099736e+11 </wgt>
<wgt id='1169'> +2.7561908e+11 </wgt>
<wgt id='1170'> +2.8420234e+11 </wgt>
<wgt id='1171'> +2.7435710e+11 </wgt>
<wgt id='1172'> +2.7053459e+11 </wgt>
<wgt id='1173'> +2.8821188e+11 </wgt>
<wgt id='1174'> +2.7871011e+11 </wgt>
<wgt id='1175'> +2.7844951e+11 </wgt>
<wgt id='1176'> +2.8895738e+11 </wgt>
<wgt id='1177'> +2.8383662e+11 </wgt>
<wgt id='1178'> +2.8642472e+11 </wgt>
<wgt id='1179'> +2.9293180e+11 </wgt>
<wgt id='1180'> +2.7845665e+11 </wgt>
<wgt id='1181'> +2.8977375e+11 </wgt>
<wgt id='1182'> +2.8356156e+11 </wgt>
<wgt id='1183'> +2.9017881e+11 </wgt>
<wgt id='1184'> +2.6407287e+11 </wgt>
<wgt id='1185'> +2.9175042e+11 </wgt>
<wgt id='1186'> +2.7843334e+11 </wgt>
<wgt id='1187'> +2.8994171e+11 </wgt>
<wgt id='1188'> +2.9494637e+11 </wgt>
<wgt id='1189'> +2.8536381e+11 </wgt>
<wgt id='1190'> +2.8116960e+11 </wgt>
<wgt id='1191'> +2.9485206e+11 </wgt>
<wgt id='1192'> +2.8716665e+11 </wgt>
<wgt id='1193'> +2.8746071e+11 </wgt>
<wgt id='1194'> +2.7493120e+11 </wgt>
<wgt id='1195'> +2.9150114e+11 </wgt>
<wgt id='1196'> +2.8764362e+11 </wgt>
<wgt id='1197'> +2.9085268e+11 </wgt>
<wgt id='1198'> +2.8423068e+11 </wgt>
<wgt id='1199'> +2.8340976e+11 </wgt>
<wgt id='1200'> +2.9320575e+11 </wgt>
<wgt id='1201'> +2.8648467e+11 </wgt>
<wgt id='1202'> +2.8208987e+11 </wgt>
<wgt id='1203'> +2.8853916e+11 </wgt>
<wgt id='1204'> +2.7741737e+11 </wgt>
<wgt id='1205'> +2.8921986e+11 </wgt>
<wgt id='1206'> +2.8046864e+11 </wgt>
<wgt id='1207'> +2.9423833e+11 </wgt>
<wgt id='1208'> +2.7471607e+11 </wgt>
<wgt id='1209'> +2.8511621e+11 </wgt>
<wgt id='1210'> +2.8523616e+11 </wgt>
<wgt id='1211'> +2.7933779e+11 </wgt>
<wgt id='1212'> +2.8007547e+11 </wgt>
<wgt id='1213'> +2.8259247e+11 </wgt>
<wgt id='1214'> +2.8043278e+11 </wgt>
<wgt id='1215'> +2.7980663e+11 </wgt>
<wgt id='1216'> +2.7052384e+11 </wgt>
<wgt id='1217'> +2.8513945e+11 </wgt>
<wgt id='1218'> +2.8336423e+11 </wgt>
<wgt id='1219'> +2.9100954e+11 </wgt>
<wgt id='1220'> +2.8057309e+11 </wgt>
<wgt id='1221'> +2.7409373e+11 </wgt>
<wgt id='1222'> +2.7948903e+11 </wgt>
<wgt id='1223'> +2.7490995e+11 </wgt>
<wgt id='1224'> +2.8154483e+11 </wgt>
<wgt id='1225'> +2.7687310e+11 </wgt>
<wgt id='1226'> +2.8475361e+11 </wgt>
<wgt id='1227'> +2.7696280e+11 </wgt>
<wgt id='1228'> +2.8005852e+11 </wgt>
<wgt id='1229'> +2.9769913e+11 </wgt>
<wgt id='1230'> +2.8628757e+11 </wgt>
<wgt id='1231'> +2.7364318e+11 </wgt>
<wgt id='1232'> +2.9035548e+11 </wgt>
<wgt id='1233'> +2.7843835e+11 </wgt>
<wgt id='1234'> +2.7844720e+11 </wgt>
<wgt id='1235'> +3.0385597e+11 </wgt>
<wgt id='1236'> +2.8363619e+11 </wgt>
<wgt id='1237'> +2.9400038e+11 </wgt>
<wgt id='1238'> +2.8619258e+11 </wgt>
<wgt id='1239'> +2.8984317e+11 </wgt>
<wgt id='1240'> +2.7453202e+11 </wgt>
<wgt id='1241'> +2.9105620e+11 </wgt>
<wgt id='1242'> +2.8262780e+11 </wgt>
<wgt id='1243'> +2.8102697e+11 </wgt>
<wgt id='1244'> +2.9255896e+11 </wgt>
<wgt id='1245'> +2.6833055e+11 </wgt>
<wgt id='1246'> +3.0321227e+11 </wgt>
<wgt id='1247'> +2.8130888e+11 </wgt>
<wgt id='1248'> +2.7500993e+11 </wgt>
<wgt id='1249'> +2.7571819e+11 </wgt>
<wgt id='1250'> +2.9674313e+11 </wgt>
<wgt id='1251'> +3.0801833e+11 </wgt>
<wgt id='1252'> +2.8915142e+11 </wgt>
<wgt id='1253'> +3.0614265e+11 </wgt>
<wgt id='1254'> +2.9305637e+11 </wgt>
<wgt id='1255'> +3.1359947e+11 </wgt>
<wgt id='1256'> +3.0998219e+11 </wgt>
<wgt id='1257'> +3.0063899e+11 </wgt>
<wgt id='1258'> +2.9260207e+11 </wgt>
<wgt id='1259'> +3.2052743e+11 </wgt>
<wgt id='1260'> +3.4036628e+11 </wgt>
<wgt id='1261'> +3.2473805e+11 </wgt>
<wgt id='1262'> +3.0185433e+11 </wgt>
<wgt id='1263'> +3.0638347e+11 </wgt>
<wgt id='1264'> +3.0547061e+11 </wgt>
<wgt id='1265'> +2.8896772e+11 </wgt>
<wgt id='1266'> +3.0863794e+11 </wgt>
<wgt id='1267'> +3.7985320e+11 </wgt>
<wgt id='1268'> +2.8697523e+11 </wgt>
<wgt id='1269'> +2.8584539e+11 </wgt>
<wgt id='1270'> +3.1907041e+11 </wgt>
<wgt id='1271'> +2.5781532e+11 </wgt>
<wgt id='1272'> +2.9965040e+11 </wgt>
<wgt id='1273'> +2.9348313e+11 </wgt>
<wgt id='1274'> +2.9147602e+11 </wgt>
<wgt id='1275'> +2.9071573e+11 </wgt>
<wgt id='1276'> +3.1478483e+11 </wgt>
<wgt id='1277'> +3.1244131e+11 </wgt>
<wgt id='1278'> +3.0835582e+11 </wgt>
<wgt id='1279'> +2.7830238e+11 </wgt>
<wgt id='1280'> +2.9288772e+11 </wgt>
<wgt id='1281'> +2.8667381e+11 </wgt>
<wgt id='1282'> +2.9392190e+11 </wgt>
<wgt id='1283'> +3.2729144e+11 </wgt>
<wgt id='1284'> +3.0153965e+11 </wgt>
<wgt id='1285'> +3.0584690e+11 </wgt>
<wgt id='1286'> +3.4406032e+11 </wgt>
<wgt id='1287'> +3.3793618e+11 </wgt>
<wgt id='1288'> +3.6148521e+11 </wgt>
<wgt id='1289'> +3.2598374e+11 </wgt>
<wgt id='1290'> +3.1677126e+11 </wgt>
<wgt id='1291'> +2.8215931e+11 </wgt>
<wgt id='1292'> +3.1121906e+11 </wgt>
<wgt id='1293'> +3.0608977e+11 </wgt>
<wgt id='1294'> +3.4640238e+11 </wgt>
<wgt id='1295'> +3.1714294e+11 </wgt>
<wgt id='1296'> +3.5347450e+11 </wgt>
<wgt id='1297'> +2.8470069e+11 </wgt>
<wgt id='1298'> +2.9398003e+11 </wgt>
<wgt id='1299'> +3.1007230e+11 </wgt>
<wgt id='1300'> +2.6722279e+11 </wgt>
<wgt id='1301'> +2.8009437e+11 </wgt>
<wgt id='1302'> +2.7889803e+11 </wgt>
<wgt id='1303'> +3.1255981e+11 </wgt>
<wgt id='1304'> +3.4998345e+11 </wgt>
<wgt id='1305'> +2.9753862e+11 </wgt>
<wgt id='1306'> +3.0785552e+11 </wgt>
<wgt id='1307'> +2.7511639e+11 </wgt>
<wgt id='1308'> +3.4000620e+11 </wgt>
<wgt id='1309'> +3.1040729e+11 </wgt>
<wgt id='1310'> +3.0821687e+11 </wgt>
<wgt id='1311'> +2.9121159e+11 </wgt>
<wgt id='1312'> +3.4009195e+11 </wgt>
<wgt id='1313'> +3.1658844e+11 </wgt>
<wgt id='1314'> +2.8286409e+11 </wgt>
<wgt id='1315'> +2.8779239e+11 </wgt>
<wgt id='1316'> +3.0138689e+11 </wgt>
<wgt id='1317'> +3.3497146e+11 </wgt>
<wgt id='1318'> +2.9265091e+11 </wgt>
<wgt id='1319'> +3.0410397e+11 </wgt>
<wgt id='1320'> +3.2708978e+11 </wgt>
<wgt id='1321'> +3.1451428e+11 </wgt>
<wgt id='1322'> +3.2870989e+11 </wgt>
<wgt id='1323'> +2.7601178e+11 </wgt>
<wgt id='1324'> +3.2206011e+11 </wgt>
<wgt id='1325'> +3.1798906e+11 </wgt>
<wgt id='1326'> +3.1659334e+11 </wgt>
<wgt id='1327'> +3.2978558e+11 </wgt>
<wgt id='1328'> +3.0936444e+11 </wgt>
<wgt id='1329'> +2.9620722e+11 </wgt>
<wgt id='1330'> +2.7965234e+11 </wgt>
<wgt id='1331'> +3.3010989e+11 </wgt>
<wgt id='1332'> +3.1336101e+11 </wgt>
<wgt id='1333'> +3.0435699e+11 </wgt>
<wgt id='1334'> +3.3279623e+11 </wgt>
<wgt id='1335'> +2.8589208e+11 </wgt>
<wgt id='1336'> +3.3732484e+11 </wgt>
<wgt id='1337'> +3.1297955e+11 </wgt>
<wgt id='1338'> +2.8391012e+11 </wgt>
<wgt id='1339'> +3.0571078e+11 </wgt>
<wgt id='1340'> +3.3044993e+11 </wgt>
<wgt id='1341'> +3.5874079e+11 </wgt>
<wgt id='1342'> +2.9074359e+11 </wgt>
<wgt id='1343'> +3.1149649e+11 </wgt>
<wgt id='1344'> +3.3062071e+11 </wgt>
<wgt id='1345'> +2.4349641e+11 </wgt>
<wgt id='1346'> +3.0890496e+11 </wgt>
<wgt id='1347'> +3.0351845e+11 </wgt>
<wgt id='1348'> +2.9210022e+11 </wgt>
<wgt id='1349'> +2.9322569e+11 </wgt>
<wgt id='1350'> +3.3111894e+11 </wgt>
<wgt id='1351'> +2.8820059e+11 </wgt>
<wgt id='1352'> +3.1004342e+11 </wgt>
<wgt id='1353'> +3.0959580e+11 </wgt>
<wgt id='1354'> +3.1713309e+11 </wgt>
<wgt id='1355'> +2.8415002e+11 </wgt>
<wgt id='1356'> +2.8657115e+11 </wgt>
<wgt id='1357'> +2.8637864e+11 </wgt>
<wgt id='1358'> +2.8256485e+11 </wgt>
<wgt id='1359'> +2.8161770e+11 </wgt>
<wgt id='1360'> +2.7941772e+11 </wgt>
<wgt id='1361'> +2.8234505e+11 </wgt>
<wgt id='1362'> +2.9375641e+11 </wgt>
<wgt id='1363'> +2.8451894e+11 </wgt>
<wgt id='1364'> +2.9490775e+11 </wgt>
<wgt id='1365'> +2.8181801e+11 </wgt>
<wgt id='1366'> +2.8089270e+11 </wgt>
<wgt id='1367'> +2.8019437e+11 </wgt>
<wgt id='1368'> +2.8700901e+11 </wgt>
<wgt id='1369'> +2.8765872e+11 </wgt>
<wgt id='1370'> +2.7656722e+11 </wgt>
<wgt id='1371'> +2.8166265e+11 </wgt>
<wgt id='1372'> +2.8025055e+11 </wgt>
<wgt id='1373'> +2.8977219e+11 </wgt>
<wgt id='1374'> +2.8136372e+11 </wgt>
<wgt id='1375'> +2.8649044e+11 </wgt>
<wgt id='1376'> +2.8396110e+11 </wgt>
<wgt id='1377'> +2.8328834e+11 </wgt>
<wgt id='1378'> +2.8868609e+11 </wgt>
<wgt id='1379'> +2.8177908e+11 </wgt>
<wgt id='1380'> +2.8160002e+11 </wgt>
<wgt id='1381'> +2.8763537e+11 </wgt>
<wgt id='1382'> +2.8080348e+11 </wgt>
<wgt id='1383'> +2.8036934e+11 </wgt>
<wgt id='1384'> +2.7623647e+11 </wgt>
<wgt id='1385'> +2.7787110e+11 </wgt>
<wgt id='1386'> +2.7983327e+11 </wgt>
<wgt id='1387'> +2.8338051e+11 </wgt>
<wgt id='1388'> +2.8069986e+11 </wgt>
<wgt id='1389'> +2.8030863e+11 </wgt>
<wgt id='1390'> +2.8786481e+11 </wgt>
<wgt id='1391'> +2.8739823e+11 </wgt>
<wgt id='1392'> +2.7642099e+11 </wgt>
<wgt id='1393'> +2.8784562e+11 </wgt>
<wgt id='1394'> +2.8594295e+11 </wgt>
<wgt id='1395'> +2.7721709e+11 </wgt>
<wgt id='1396'> +2.8428788e+11 </wgt>
<wgt id='1397'> +2.8350046e+11 </wgt>
<wgt id='1398'> +2.9269323e+11 </wgt>
<wgt id='1399'> +2.8216700e+11 </wgt>
<wgt id='1400'> +2.7747524e+11 </wgt>
<wgt id='1401'> +2.8360918e+11 </wgt>
<wgt id='1402'> +2.8603327e+11 </wgt>
<wgt id='1403'> +2.9731178e+11 </wgt>
<wgt id='1404'> +2.8914813e+11 </wgt>
<wgt id='1405'> +2.9493856e+11 </wgt>
<wgt id='1406'> +2.9052172e+11 </wgt>
<wgt id='1407'> +2.8852816e+11 </wgt>
<wgt id='1408'> +2.9635012e+11 </wgt>
<wgt id='1409'> +2.7689076e+11 </wgt>
<wgt id='1410'> +2.7680714e+11 </wgt>
<wgt id='1411'> +2.8371635e+11 </wgt>
<wgt id='1412'> +2.8786081e+11 </wgt>
<wgt id='1413'> +2.9178913e+11 </wgt>
<wgt id='1414'> +2.8685796e+11 </wgt>
<wgt id='1415'> +2.7851716e+11 </wgt>
<wgt id='1416'> +2.8383710e+11 </wgt>
<wgt id='1417'> +2.8156149e+11 </wgt>
<wgt id='1418'> +2.8162981e+11 </wgt>
<wgt id='1419'> +2.8629879e+11 </wgt>
<wgt id='1420'> +2.7304284e+11 </wgt>
<wgt id='1421'> +2.9267823e+11 </wgt>
<wgt id='1422'> +2.7468605e+11 </wgt>
<wgt id='1423'> +2.8619641e+11 </wgt>
<wgt id='1424'> +2.8207691e+11 </wgt>
<wgt id='1425'> +2.8332858e+11 </wgt>
<wgt id='1426'> +2.8825137e+11 </wgt>
<wgt id='1427'> +2.8064391e+11 </wgt>
<wgt id='1428'> +2.7985367e+11 </wgt>
<wgt id='1429'> +2.8533337e+11 </wgt>
<wgt id='1430'> +2.8076138e+11 </wgt>
<wgt id='1431'> +2.8483984e+11 </wgt>
<wgt id='1432'> +2.7634140e+11 </wgt>
<wgt id='1433'> +2.7565673e+11 </wgt>
<wgt id='1434'> +2.8794938e+11 </wgt>
<wgt id='1435'> +2.8511242e+11 </wgt>
<wgt id='1436'> +2.8792919e+11 </wgt>
<wgt id='1437'> +2.8152108e+11 </wgt>
<wgt id='1438'> +2.8389265e+11 </wgt>
<wgt id='1439'> +2.9381221e+11 </wgt>
<wgt id='1440'> +2.8312073e+11 </wgt>
<wgt id='1441'> +2.7930970e+11 </wgt>
<wgt id='1442'> +2.8441496e+11 </wgt>
<wgt id='1443'> +2.7800727e+11 </wgt>
<wgt id='1444'> +2.9460162e+11 </wgt>
<wgt id='1445'> +2.8033935e+11 </wgt>
<wgt id='1446'> +2.9692475e+11 </wgt>
<wgt id='1447'> +2.8728041e+11 </wgt>
<wgt id='1448'> +2.8732934e+11 </wgt>
<wgt id='1449'> +2.8640891e+11 </wgt>
<wgt id='1450'> +2.8216219e+11 </wgt>
<wgt id='1451'> +2.8123999e+11 </wgt>
<wgt id='1452'> +2.8721067e+11 </wgt>
<wgt id='1453'> +2.8896649e+11 </wgt>
<wgt id='1454'> +2.7416821e+11 </wgt>
<wgt id='1455'> +2.8252482e+11 </wgt>
<wgt id='1456'> +2.8144769e+11 </wgt>
<wgt id='1457'> +2.8520479e+11 </wgt>
<wgt id='1458'> +2.9368482e+11 </wgt>
<wgt id='1459'> +3.1569468e+11 </wgt>
<wgt id='1460'> +3.0995468e+11 </wgt>
<wgt id='1461'> +3.7720951e+11 </wgt>
<wgt id='1462'> +3.0680309e+11 </wgt>
<wgt id='1463'> +3.0701423e+11 </wgt>
<wgt id='1464'> +3.0653228e+11 </wgt>
<wgt id='1465'> +3.0687530e+11 </wgt>
<wgt id='1466'> +3.0673713e+11 </wgt>
<wgt id='1467'> +3.0689486e+11 </wgt>
<wgt id='1468'> +3.0665251e+11 </wgt>
<wgt id='1469'> +3.0636983e+11 </wgt>
<wgt id='1470'> +3.0715492e+11 </wgt>
<wgt id='1471'> +3.0724564e+11 </wgt>
<wgt id='1472'> +3.0634724e+11 </wgt>
<wgt id='1473'> +3.0804951e+11 </wgt>
<wgt id='1474'> +3.0560585e+11 </wgt>
<wgt id='1475'> +3.0797325e+11 </wgt>
<wgt id='1476'> +3.0597375e+11 </wgt>
<wgt id='1477'> +3.0625720e+11 </wgt>
<wgt id='1478'> +3.0807872e+11 </wgt>
<wgt id='1479'> +3.0658229e+11 </wgt>
<wgt id='1480'> +3.0696470e+11 </wgt>
<wgt id='1481'> +3.0610598e+11 </wgt>
<wgt id='1482'> +3.0774833e+11 </wgt>
<wgt id='1483'> +3.0683082e+11 </wgt>
<wgt id='1484'> +3.0677119e+11 </wgt>
<wgt id='1485'> +3.0700466e+11 </wgt>
<wgt id='1486'> +3.0631727e+11 </wgt>
<wgt id='1487'> +3.0708465e+11 </wgt>
<wgt id='1488'> +3.0644972e+11 </wgt>
<wgt id='1489'> +3.0640690e+11 </wgt>
<wgt id='1490'> +3.0787785e+11 </wgt>
<wgt id='1491'> +3.1208151e+11 </wgt>
<wgt id='1492'> +3.0386427e+11 </wgt>
<wgt id='1493'> +3.0295709e+11 </wgt>
<wgt id='1494'> +3.1886682e+11 </wgt>
<wgt id='1495'> +3.0580717e+11 </wgt>
<wgt id='1496'> +3.0787362e+11 </wgt>
<wgt id='1497'> +3.0704166e+11 </wgt>
<wgt id='1498'> +3.0647792e+11 </wgt>
<wgt id='1499'> +3.0914768e+11 </wgt>
<wgt id='1500'> +3.0552504e+11 </wgt>
<wgt id='1501'> +3.0700347e+11 </wgt>
<wgt id='1502'> +3.0629145e+11 </wgt>
<wgt id='1503'> +3.0131115e+11 </wgt>
<wgt id='1504'> +3.1311096e+11 </wgt>
<wgt id='1505'> +3.0722037e+11 </wgt>
<wgt id='1506'> +3.0638751e+11 </wgt>
<wgt id='1507'> +3.1177787e+11 </wgt>
<wgt id='1508'> +2.9795112e+11 </wgt>
<wgt id='1509'> +3.0777114e+11 </wgt>
<wgt id='1510'> +3.0261571e+11 </wgt>
<wgt id='1511'> +3.0804023e+11 </wgt>
<wgt id='1512'> +3.0654276e+11 </wgt>
<wgt id='1513'> +3.0650977e+11 </wgt>
<wgt id='1514'> +3.0714753e+11 </wgt>
<wgt id='1515'> +3.1191645e+11 </wgt>
<wgt id='1516'> +3.0549911e+11 </wgt>
<wgt id='1517'> +3.0610195e+11 </wgt>
<wgt id='1518'> +3.0796093e+11 </wgt>
<wgt id='1519'> +3.0452616e+11 </wgt>
<wgt id='1520'> +3.0841198e+11 </wgt>
<wgt id='1521'> +3.0518906e+11 </wgt>
<wgt id='1522'> +3.0769271e+11 </wgt>
<wgt id='1523'> +3.0804953e+11 </wgt>
<wgt id='1524'> +3.0861419e+11 </wgt>
<wgt id='1525'> +3.0721712e+11 </wgt>
<wgt id='1526'> +3.0878233e+11 </wgt>
<wgt id='1527'> +3.0680309e+11 </wgt>
<wgt id='1528'> +3.0474891e+11 </wgt>
<wgt id='1529'> +3.0876974e+11 </wgt>
<wgt id='1530'> +3.0051804e+11 </wgt>
<wgt id='1531'> +3.1410543e+11 </wgt>
<wgt id='1532'> +3.1533569e+11 </wgt>
<wgt id='1533'> +3.0793503e+11 </wgt>
<wgt id='1534'> +3.1204650e+11 </wgt>
<wgt id='1535'> +3.1796090e+11 </wgt>
<wgt id='1536'> +3.0977784e+11 </wgt>
<wgt id='1537'> +3.1763277e+11 </wgt>
<wgt id='1538'> +3.0932518e+11 </wgt>
<wgt id='1539'> +3.1917810e+11 </wgt>
<wgt id='1540'> +3.1669708e+11 </wgt>
<wgt id='1541'> +3.1652410e+11 </wgt>
<wgt id='1542'> +3.1463025e+11 </wgt>
<wgt id='1543'> +3.1667101e+11 </wgt>
<wgt id='1544'> +3.1231974e+11 </wgt>
<wgt id='1545'> +3.1214888e+11 </wgt>
<wgt id='1546'> +3.1046710e+11 </wgt>
<wgt id='1547'> +3.1632439e+11 </wgt>
<wgt id='1548'> +3.1338623e+11 </wgt>
<wgt id='1549'> +3.1047735e+11 </wgt>
<wgt id='1550'> +3.1715193e+11 </wgt>
<wgt id='1551'> +3.1474528e+11 </wgt>
<wgt id='1552'> +3.1459600e+11 </wgt>
<wgt id='1553'> +3.2190864e+11 </wgt>
<wgt id='1554'> +3.1469217e+11 </wgt>
<wgt id='1555'> +3.1518288e+11 </wgt>
<wgt id='1556'> +3.1609146e+11 </wgt>
<wgt id='1557'> +3.1396501e+11 </wgt>
<wgt id='1558'> +3.1441871e+11 </wgt>
<wgt id='1559'> +3.1158236e+11 </wgt>
<wgt id='1560'> +3.1350003e+11 </wgt>
<wgt id='1561'> +3.1284856e+11 </wgt>
<wgt id='1562'> +3.1155529e+11 </wgt>
<wgt id='1563'> +3.1450478e+11 </wgt>
<wgt id='1564'> +3.1381505e+11 </wgt>
<wgt id='1565'> +3.1810373e+11 </wgt>
<wgt id='1566'> +3.1408781e+11 </wgt>
<wgt id='1567'> +3.1337537e+11 </wgt>
<wgt id='1568'> +3.1391051e+11 </wgt>
<wgt id='1569'> +3.1335269e+11 </wgt>
<wgt id='1570'> +3.2150037e+11 </wgt>
<wgt id='1571'> +3.1411555e+11 </wgt>
<wgt id='1572'> +3.1497336e+11 </wgt>
<wgt id='1573'> +3.1978093e+11 </wgt>
<wgt id='1574'> +2.4744817e+11 </wgt>
<wgt id='1575'> +2.4751128e+11 </wgt>
<wgt id='1576'> +2.4737881e+11 </wgt>
<wgt id='1577'> +2.4746586e+11 </wgt>
<wgt id='1578'> +2.4801873e+11 </wgt>
<wgt id='1579'> +2.4819788e+11 </wgt>
<wgt id='1580'> +2.4795980e+11 </wgt>
<wgt id='1581'> +2.4707769e+11 </wgt>
<wgt id='1582'> +2.4683376e+11 </wgt>
<wgt id='1583'> +2.4696291e+11 </wgt>
<wgt id='1584'> +2.4800794e+11 </wgt>
<wgt id='1585'> +2.4775476e+11 </wgt>
<wgt id='1586'> +2.4679141e+11 </wgt>
<wgt id='1587'> +2.4687760e+11 </wgt>
<wgt id='1588'> +2.4647204e+11 </wgt>
<wgt id='1589'> +2.4707283e+11 </wgt>
<wgt id='1590'> +2.4730932e+11 </wgt>
<wgt id='1591'> +2.4753131e+11 </wgt>
<wgt id='1592'> +2.4651488e+11 </wgt>
<wgt id='1593'> +2.4623065e+11 </wgt>
<wgt id='1594'> +2.4865619e+11 </wgt>
<wgt id='1595'> +2.4475817e+11 </wgt>
<wgt id='1596'> +2.5206461e+11 </wgt>
<wgt id='1597'> +2.4927952e+11 </wgt>
<wgt id='1598'> +2.4933124e+11 </wgt>
<wgt id='1599'> +2.4428823e+11 </wgt>
<wgt id='1600'> +2.5261204e+11 </wgt>
<wgt id='1601'> +2.4960568e+11 </wgt>
<wgt id='1602'> +2.4756646e+11 </wgt>
<wgt id='1603'> +2.6351126e+11 </wgt>
<wgt id='1604'> +2.4748079e+11 </wgt>
</rwgt>
</event>
<event>
 9      1 +2.8343000e+11 1.40000100e+03 7.81738600e-03 7.88881100e-02
       21 -1    0    0  504  503 +0.0000000000e+00 +0.0000000000e+00 +7.7773865932e+02 7.7773865932e+02 0.0000000000e+00 0.0000e+00 1.0000e+00
       21 -1    0    0  503  504 -0.0000000000e+00 -0.0000000000e+00 -6.3003230394e+02 6.3003230394e+02 0.0000000000e+00 0.0000e+00 1.0000e+00
       45  2    1    2    0    0 -5.6843418861e-14 +0.0000000000e+00 +1.4770635538e+02 1.4077709633e+03 1.4000006848e+03 0.0000e+00 0.0000e+00
       25  2    3    3    0    0 -4.1636593380e+02 +5.1532734208e+02 +2.7327925908e+02 7.2748335043e+02 1.2501044515e+02 0.0000e+00 0.0000e+00
       35  2    3    3    0    0 +4.1636593380e+02 -5.1532734208e+02 -1.2557290370e+02 6.8028761282e+02 8.9999009399e+01 0.0000e+00 0.0000e+00
        5  1    5    5  501    0 -8.9708099462e-01 -2.1003937123e+01 -7.5658259480e-01 2.1454611210e+01 4.2140000000e+00 0.0000e+00 1.0000e+00
       -5  1    5    5    0  501 +4.1726301479e+02 -4.9432340495e+02 -1.2481632110e+02 6.5883300161e+02 4.2140000000e+00 0.0000e+00 1.0000e+00
        5  1    4    4  502    0 -2.7153736758e+02 +2.6048577359e+02 +1.9615008158e+02 4.2435597384e+02 4.2140000000e+00 0.0000e+00 -1.0000e+00
       -5  1    4    4    0  502 -1.4482856622e+02 +2.5484156849e+02 +7.7129177498e+01 3.0312737659e+02 4.2140000000e+00 0.0000e+00 -1.0000e+00
<mgrwt>
<rscale>  0 0.14000007E+04</rscale>
<asrwt>0</asrwt>
<pdfrwt beam="1">  1       21 0.11965210E+00 0.14000007E+04</pdfrwt>
<pdfrwt beam="2">  1       21 0.96928047E-01 0.14000007E+04</pdfrwt>
<totfact> 0.35545937E+02</totfact>
</mgrwt>
<rwgt>
<wgt id='1001'> +2.8343000e+11 </wgt>
<wgt id='1002'> +2.8548551e+11 </wgt>
<wgt id='1003'> +2.8548523e+11 </wgt>
<wgt id='1004'> +3.2017580e+11 </wgt>
<wgt id='1005'> +2.8343000e+11 </wgt>
<wgt id='1006'> +2.8343000e+11 </wgt>
<wgt id='1007'> +2.8548551e+11 </wgt>
<wgt id='1008'> +2.8548523e+11 </wgt>
<wgt id='1009'> +3.2017580e+11 </wgt>
<wgt id='1010'> +2.8343000e+11 </wgt>
<wgt id='1011'> +2.8343000e+11 </wgt>
<wgt id='1012'> +2.8548551e+11 </wgt>
<wgt id='1013'> +2.8548523e+11 </wgt>
<wgt id='1014'> +3.2017580e+11 </wgt>
<wgt id='1015'> +2.8343000e+11 </wgt>
<wgt id='1016'> +2.5466719e+11 </wgt>
<wgt id='1017'> +2.5640914e+11 </wgt>
<wgt id='1018'> +2.5640891e+11 </wgt>
<wgt id='1019'> +2.8548523e+11 </wgt>
<wgt id='1020'> +2.5466719e+11 </wgt>
<wgt id='1021'> +2.5466719e+11 </wgt>
<wgt id='1022'> +2.5640914e+11 </wgt>
<wgt id='1023'> +2.5640891e+11 </wgt>
<wgt id='1024'> +2.8548523e+11 </wgt>
<wgt id='1025'> +2.5466719e+11 </wgt>
<wgt id='1026'> +2.5466719e+11 </wgt>
<wgt id='1027'> +2.5640914e+11 </wgt>
<wgt id='1028'> +2.5640891e+11 </wgt>
<wgt id='1029'> +2.8548523e+11 </wgt>
<wgt id='1030'> +2.5466719e+11 </wgt>
<wgt id='1031'> +3.1770907e+11 </wgt>
<wgt id='1032'> +3.2017613e+11 </wgt>
<wgt id='1033'> +3.2017580e+11 </wgt>
<wgt id='1034'> +3.6189524e+11 </wgt>
<wgt id='1035'> +3.1770907e+11 </wgt>
<wgt id='1036'> +3.1770907e+11 </wgt>
<wgt id='1037'> +3.2017613e+11 </wgt>
<wgt id='1038'> +3.2017580e+11 </wgt>
<wgt id='1039'> +3.6189524e+11 </wgt>
<wgt id='1040'> +3.1770907e+11 </wgt>
<wgt id='1041'> +3.1770907e+11 </wgt>
<wgt id='1042'> +3.2017613e+11 </wgt>
<wgt id='1043'> +3.2017580e+11 </wgt>
<wgt id='1044'> +3.6189524e+11 </wgt>
<wgt id='1045'> +3.1770907e+11 </wgt>
<wgt id='1046'> +2.8343000e+11 </wgt>
<wgt id='1047'> +2.8343000e+11 </wgt>
<wgt id='1048'> +2.8343000e+11 </wgt>
<wgt id='1049'> +2.8229492e+11 </wgt>
<wgt id='1050'> +2.8306213e+11 </wgt>
<wgt id='1051'> +2.8372175e+11 </wgt>
<wgt id='1052'> +2.8421805e+11 </wgt>
<wgt id='1053'> +2.8188516e+11 </wgt>
<wgt id='1054'> +2.8387466e+11 </wgt>
<wgt id='1055'> +2.8225146e+11 </wgt>
<wgt id='1056'> +2.8183253e+11 </wgt>
<wgt id='1057'> +2.8418572e+11 </wgt>
<wgt id='1058'> +2.8304557e+11 </wgt>
<wgt id='1059'> +2.8540617e+11 </wgt>
<wgt id='1060'> +2.8365910e+11 </wgt>
<wgt id='1061'> +2.8419030e+11 </wgt>
<wgt id='1062'> +2.8402227e+11 </wgt>
<wgt id='1063'> +2.8369227e+11 </wgt>
<wgt id='1064'> +2.8466336e+11 </wgt>
<wgt id='1065'> +2.8486149e+11 </wgt>
<wgt id='1066'> +2.8194507e+11 </wgt>
<wgt id='1067'> +2.7978301e+11 </wgt>
<wgt id='1068'> +2.8378200e+11 </wgt>
<wgt id='1069'> +2.8276088e+11 </wgt>
<wgt id='1070'> +2.8345648e+11 </wgt>
<wgt id='1071'> +2.8482418e+11 </wgt>
<wgt id='1072'> +2.8114958e+11 </wgt>
<wgt id='1073'> +2.8409620e+11 </wgt>
<wgt id='1074'> +2.8308800e+11 </wgt>
<wgt id='1075'> +2.8441986e+11 </wgt>
<wgt id='1076'> +2.8313511e+11 </wgt>
<wgt id='1077'> +2.8290968e+11 </wgt>
<wgt id='1078'> +2.8410149e+11 </wgt>
<wgt id='1079'> +2.8181041e+11 </wgt>
<wgt id='1080'> +2.8279738e+11 </wgt>
<wgt id='1081'> +2.8301276e+11 </wgt>
<wgt id='1082'> +2.8205170e+11 </wgt>
<wgt id='1083'> +2.8398833e+11 </wgt>
<wgt id='1084'> +2.8406855e+11 </wgt>
<wgt id='1085'> +2.8285118e+11 </wgt>
<wgt id='1086'> +2.8282155e+11 </wgt>
<wgt id='1087'> +2.8308327e+11 </wgt>
<wgt id='1088'> +2.8294155e+11 </wgt>
<wgt id='1089'> +2.8279831e+11 </wgt>
<wgt id='1090'> +2.8413621e+11 </wgt>
<wgt id='1091'> +2.8349719e+11 </wgt>
<wgt id='1092'> +2.8369007e+11 </wgt>
<wgt id='1093'> +2.8332218e+11 </wgt>
<wgt id='1094'> +2.8289714e+11 </wgt>
<wgt id='1095'> +2.8354808e+11 </wgt>
<wgt id='1096'> +2.8337494e+11 </wgt>
<wgt id='1097'> +2.8303259e+11 </wgt>
<wgt id='1098'> +2.8307681e+11 </wgt>
<wgt id='1099'> +2.8322374e+11 </wgt>
<wgt id='1100'> +2.8401786e+11 </wgt>
<wgt id='1101'> +2.8340848e+11 </wgt>
<wgt id='1102'> +2.8328246e+11 </wgt>
<wgt id='1103'> +2.8310569e+11 </wgt>
<wgt id='1104'> +2.8310424e+11 </wgt>
<wgt id='1105'> +2.8354019e+11 </wgt>
<wgt id='1106'> +2.8376011e+11 </wgt>
<wgt id='1107'> +2.8333486e+11 </wgt>
<wgt id='1108'> +2.8333841e+11 </wgt>
<wgt id='1109'> +2.8323548e+11 </wgt>
<wgt id='1110'> +2.8376021e+11 </wgt>
<wgt id='1111'> +2.8356017e+11 </wgt>
<wgt id='1112'> +2.8339816e+11 </wgt>
<wgt id='1113'> +2.8373963e+11 </wgt>
<wgt id='1114'> +2.8311246e+11 </wgt>
<wgt id='1115'> +2.8325184e+11 </wgt>
<wgt id='1116'> +2.8374002e+11 </wgt>
<wgt id='1117'> +2.8337178e+11 </wgt>
<wgt id='1118'> +2.8353211e+11 </wgt>
<wgt id='1119'> +2.8325298e+11 </wgt>
<wgt id='1120'> +2.8328285e+11 </wgt>
<wgt id='1121'> +2.8349401e+11 </wgt>
<wgt id='1122'> +2.8322752e+11 </wgt>
<wgt id='1123'> +2.8337431e+11 </wgt>
<wgt id='1124'> +2.8334305e+11 </wgt>
<wgt id='1125'> +2.8358939e+11 </wgt>
<wgt id='1126'> +2.8353596e+11 </wgt>
<wgt id='1127'> +2.8332216e+11 </wgt>
<wgt id='1128'> +2.8347144e+11 </wgt>
<wgt id='1129'> +2.8338696e+11 </wgt>
<wgt id='1130'> +2.8346294e+11 </wgt>
<wgt id='1131'> +2.8369902e+11 </wgt>
<wgt id='1132'> +2.8335161e+11 </wgt>
<wgt id='1133'> +2.8350664e+11 </wgt>
<wgt id='1134'> +2.8340986e+11 </wgt>
<wgt id='1135'> +2.8346927e+11 </wgt>
<wgt id='1136'> +2.8339701e+11 </wgt>
<wgt id='1137'> +2.8328573e+11 </wgt>
<wgt id='1138'> +2.8354356e+11 </wgt>
<wgt id='1139'> +2.8346826e+11 </wgt>
<wgt id='1140'> +2.8364138e+11 </wgt>
<wgt id='1141'> +2.8330269e+11 </wgt>
<wgt id='1142'> +2.8350064e+11 </wgt>
<wgt id='1143'> +2.8359542e+11 </wgt>
<wgt id='1144'> +2.8334455e+11 </wgt>
<wgt id='1145'> +2.8355401e+11 </wgt>
<wgt id='1146'> +2.8341140e+11 </wgt>
<wgt id='1147'> +2.8347586e+11 </wgt>
<wgt id='1148'> +2.8343000e+11 </wgt>
<wgt id='1149'> +2.8343000e+11 </wgt>
<wgt id='1150'> +2.9146129e+11 </wgt>
<wgt id='1151'> +2.8109584e+11 </wgt>
<wgt id='1152'> +2.8512338e+11 </wgt>
<wgt id='1153'> +2.8765949e+11 </wgt>
<wgt id='1154'> +2.8730649e+11 </wgt>
<wgt id='1155'> +2.8850842e+11 </wgt>
<wgt id='1156'> +2.7657392e+11 </wgt>
<wgt id='1157'> +2.7655917e+11 </wgt>
<wgt id='1158'> +2.7762201e+11 </wgt>
<wgt id='1159'> +2.9633999e+11 </wgt>
<wgt id='1160'> +2.8167883e+11 </wgt>
<wgt id='1161'> +2.8553097e+11 </wgt>
<wgt id='1162'> +2.7660822e+11 </wgt>
<wgt id='1163'> +2.8681503e+11 </wgt>
<wgt id='1164'> +2.6766691e+11 </wgt>
<wgt id='1165'> +2.7926054e+11 </wgt>
<wgt id='1166'> +2.8495615e+11 </wgt>
<wgt id='1167'> +2.7986303e+11 </wgt>
<wgt id='1168'> +2.7648986e+11 </wgt>
<wgt id='1169'> +2.7594833e+11 </wgt>
<wgt id='1170'> +2.7625964e+11 </wgt>
<wgt id='1171'> +2.7344184e+11 </wgt>
<wgt id='1172'> +2.7748433e+11 </wgt>
<wgt id='1173'> +2.8790495e+11 </wgt>
<wgt id='1174'> +2.7958375e+11 </wgt>
<wgt id='1175'> +2.7531360e+11 </wgt>
<wgt id='1176'> +2.8637599e+11 </wgt>
<wgt id='1177'> +2.7921046e+11 </wgt>
<wgt id='1178'> +2.8314122e+11 </wgt>
<wgt id='1179'> +2.8029923e+11 </wgt>
<wgt id='1180'> +2.8408864e+11 </wgt>
<wgt id='1181'> +2.7673153e+11 </wgt>
<wgt id='1182'> +2.8157676e+11 </wgt>
<wgt id='1183'> +2.9559243e+11 </wgt>
<wgt id='1184'> +2.7664247e+11 </wgt>
<wgt id='1185'> +2.8105327e+11 </wgt>
<wgt id='1186'> +2.7183740e+11 </wgt>
<wgt id='1187'> +2.8567897e+11 </wgt>
<wgt id='1188'> +2.7757706e+11 </wgt>
<wgt id='1189'> +2.8550238e+11 </wgt>
<wgt id='1190'> +2.8414752e+11 </wgt>
<wgt id='1191'> +2.9507568e+11 </wgt>
<wgt id='1192'> +2.9176823e+11 </wgt>
<wgt id='1193'> +2.9526955e+11 </wgt>
<wgt id='1194'> +2.8453775e+11 </wgt>
<wgt id='1195'> +2.8375681e+11 </wgt>
<wgt id='1196'> +2.9234138e+11 </wgt>
<wgt id='1197'> +2.9398414e+11 </wgt>
<wgt id='1198'> +2.7557024e+11 </wgt>
<wgt id='1199'> +2.8217793e+11 </wgt>
<wgt id='1200'> +2.8240947e+11 </wgt>
<wgt id='1201'> +2.7934754e+11 </wgt>
<wgt id='1202'> +2.8861276e+11 </wgt>
<wgt id='1203'> +2.7768764e+11 </wgt>
<wgt id='1204'> +2.8819191e+11 </wgt>
<wgt id='1205'> +2.8505501e+11 </wgt>
<wgt id='1206'> +2.7655813e+11 </wgt>
<wgt id='1207'> +2.9307757e+11 </wgt>
<wgt id='1208'> +2.7278175e+11 </wgt>
<wgt id='1209'> +2.7875985e+11 </wgt>
<wgt id='1210'> +2.8042684e+11 </wgt>
<wgt id='1211'> +2.8574392e+11 </wgt>
<wgt id='1212'> +2.8364582e+11 </wgt>
<wgt id='1213'> +2.9333696e+11 </wgt>
<wgt id='1214'> +2.7573292e+11 </wgt>
<wgt id='1215'> +2.9187825e+11 </wgt>
<wgt id='1216'> +2.8598824e+11 </wgt>
<wgt id='1217'> +2.7593576e+11 </wgt>
<wgt id='1218'> +2.8477375e+11 </wgt>
<wgt id='1219'> +2.9438701e+11 </wgt>
<wgt id='1220'> +2.7712231e+11 </wgt>
<wgt id='1221'> +2.7506918e+11 </wgt>
<wgt id='1222'> +2.8034677e+11 </wgt>
<wgt id='1223'> +2.7260692e+11 </wgt>
<wgt id='1224'> +2.8351508e+11 </wgt>
<wgt id='1225'> +2.8812626e+11 </wgt>
<wgt id='1226'> +2.9057448e+11 </wgt>
<wgt id='1227'> +2.7319636e+11 </wgt>
<wgt id='1228'> +2.8139272e+11 </wgt>
<wgt id='1229'> +3.0281051e+11 </wgt>
<wgt id='1230'> +2.9407090e+11 </wgt>
<wgt id='1231'> +2.7926054e+11 </wgt>
<wgt id='1232'> +2.8907499e+11 </wgt>
<wgt id='1233'> +2.7810881e+11 </wgt>
<wgt id='1234'> +2.7635615e+11 </wgt>
<wgt id='1235'> +3.0293933e+11 </wgt>
<wgt id='1236'> +2.7660127e+11 </wgt>
<wgt id='1237'> +2.8979837e+11 </wgt>
<wgt id='1238'> +2.8951282e+11 </wgt>
<wgt id='1239'> +2.9191884e+11 </wgt>
<wgt id='1240'> +2.8537729e+11 </wgt>
<wgt id='1241'> +2.8205086e+11 </wgt>
<wgt id='1242'> +2.8072075e+11 </wgt>
<wgt id='1243'> +2.8889053e+11 </wgt>
<wgt id='1244'> +2.8128370e+11 </wgt>
<wgt id='1245'> +2.8177029e+11 </wgt>
<wgt id='1246'> +3.0717948e+11 </wgt>
<wgt id='1247'> +2.8365306e+11 </wgt>
<wgt id='1248'> +2.7530458e+11 </wgt>
<wgt id='1249'> +2.7760332e+11 </wgt>
<wgt id='1250'> +2.9213289e+11 </wgt>
<wgt id='1251'> +2.9869092e+11 </wgt>
<wgt id='1252'> +2.8713519e+11 </wgt>
<wgt id='1253'> +2.8526445e+11 </wgt>
<wgt id='1254'> +2.8858828e+11 </wgt>
<wgt id='1255'> +2.9802551e+11 </wgt>
<wgt id='1256'> +2.9542726e+11 </wgt>
<wgt id='1257'> +2.8581938e+11 </wgt>
<wgt id='1258'> +3.0006245e+11 </wgt>
<wgt id='1259'> +2.9475889e+11 </wgt>
<wgt id='1260'> +3.2543105e+11 </wgt>
<wgt id='1261'> +3.1371425e+11 </wgt>
<wgt id='1262'> +2.8964261e+11 </wgt>
<wgt id='1263'> +2.9670475e+11 </wgt>
<wgt id='1264'> +2.9855512e+11 </wgt>
<wgt id='1265'> +2.9859251e+11 </wgt>
<wgt id='1266'> +2.9441355e+11 </wgt>
<wgt id='1267'> +3.1586208e+11 </wgt>
<wgt id='1268'> +2.9408390e+11 </wgt>
<wgt id='1269'> +2.8714513e+11 </wgt>
<wgt id='1270'> +2.9151133e+11 </wgt>
<wgt id='1271'> +2.7915729e+11 </wgt>
<wgt id='1272'> +2.9327733e+11 </wgt>
<wgt id='1273'> +2.9181494e+11 </wgt>
<wgt id='1274'> +2.8755486e+11 </wgt>
<wgt id='1275'> +2.9840544e+11 </wgt>
<wgt id='1276'> +2.9551197e+11 </wgt>
<wgt id='1277'> +2.9088179e+11 </wgt>
<wgt id='1278'> +2.8673646e+11 </wgt>
<wgt id='1279'> +2.8113146e+11 </wgt>
<wgt id='1280'> +2.9364800e+11 </wgt>
<wgt id='1281'> +2.8575194e+11 </wgt>
<wgt id='1282'> +2.9655206e+11 </wgt>
<wgt id='1283'> +2.9629541e+11 </wgt>
<wgt id='1284'> +3.1466948e+11 </wgt>
<wgt id='1285'> +3.0814619e+11 </wgt>
<wgt id='1286'> +3.2863690e+11 </wgt>
<wgt id='1287'> +3.0322590e+11 </wgt>
<wgt id='1288'> +3.2364683e+11 </wgt>
<wgt id='1289'> +3.1294338e+11 </wgt>
<wgt id='1290'> +3.1136261e+11 </wgt>
<wgt id='1291'> +2.7785798e+11 </wgt>
<wgt id='1292'> +2.9742245e+11 </wgt>
<wgt id='1293'> +3.0015792e+11 </wgt>
<wgt id='1294'> +3.1441325e+11 </wgt>
<wgt id='1295'> +2.9838570e+11 </wgt>
<wgt id='1296'> +3.1545806e+11 </wgt>
<wgt id='1297'> +2.9541514e+11 </wgt>
<wgt id='1298'> +2.8769506e+11 </wgt>
<wgt id='1299'> +2.9858657e+11 </wgt>
<wgt id='1300'> +2.8798580e+11 </wgt>
<wgt id='1301'> +2.8081916e+11 </wgt>
<wgt id='1302'> +2.7587570e+11 </wgt>
<wgt id='1303'> +2.9838083e+11 </wgt>
<wgt id='1304'> +3.0618473e+11 </wgt>
<wgt id='1305'> +2.9827343e+11 </wgt>
<wgt id='1306'> +3.0515246e+11 </wgt>
<wgt id='1307'> +3.0346135e+11 </wgt>
<wgt id='1308'> +3.2532051e+11 </wgt>
<wgt id='1309'> +2.9579324e+11 </wgt>
<wgt id='1310'> +3.0213855e+11 </wgt>
<wgt id='1311'> +3.0781252e+11 </wgt>
<wgt id='1312'> +2.9916128e+11 </wgt>
<wgt id='1313'> +2.9687670e+11 </wgt>
<wgt id='1314'> +3.0401271e+11 </wgt>
<wgt id='1315'> +2.8487909e+11 </wgt>
<wgt id='1316'> +2.9848300e+11 </wgt>
<wgt id='1317'> +3.0133887e+11 </wgt>
<wgt id='1318'> +2.8642270e+11 </wgt>
<wgt id='1319'> +3.0750445e+11 </wgt>
<wgt id='1320'> +3.0906123e+11 </wgt>
<wgt id='1321'> +2.9370979e+11 </wgt>
<wgt id='1322'> +2.9777909e+11 </wgt>
<wgt id='1323'> +2.9848780e+11 </wgt>
<wgt id='1324'> +3.0123825e+11 </wgt>
<wgt id='1325'> +3.1087381e+11 </wgt>
<wgt id='1326'> +3.0286115e+11 </wgt>
<wgt id='1327'> +2.9362706e+11 </wgt>
<wgt id='1328'> +3.0244931e+11 </wgt>
<wgt id='1329'> +2.9769466e+11 </wgt>
<wgt id='1330'> +2.9060177e+11 </wgt>
<wgt id='1331'> +3.1919794e+11 </wgt>
<wgt id='1332'> +2.8605425e+11 </wgt>
<wgt id='1333'> +3.0051068e+11 </wgt>
<wgt id='1334'> +3.1381911e+11 </wgt>
<wgt id='1335'> +2.9246430e+11 </wgt>
<wgt id='1336'> +3.0235700e+11 </wgt>
<wgt id='1337'> +3.0841135e+11 </wgt>
<wgt id='1338'> +2.8974749e+11 </wgt>
<wgt id='1339'> +3.2022160e+11 </wgt>
<wgt id='1340'> +3.0159434e+11 </wgt>
<wgt id='1341'> +3.0491076e+11 </wgt>
<wgt id='1342'> +3.1540542e+11 </wgt>
<wgt id='1343'> +3.1018084e+11 </wgt>
<wgt id='1344'> +3.0349429e+11 </wgt>
<wgt id='1345'> +2.7983477e+11 </wgt>
<wgt id='1346'> +2.9947130e+11 </wgt>
<wgt id='1347'> +2.8677428e+11 </wgt>
<wgt id='1348'> +2.8795403e+11 </wgt>
<wgt id='1349'> +2.8971350e+11 </wgt>
<wgt id='1350'> +3.0044399e+11 </wgt>
<wgt id='1351'> +2.9665559e+11 </wgt>
<wgt id='1352'> +3.0043773e+11 </wgt>
<wgt id='1353'> +2.9711815e+11 </wgt>
<wgt id='1354'> +3.0685271e+11 </wgt>
<wgt id='1355'> +2.7551380e+11 </wgt>
<wgt id='1356'> +2.7826649e+11 </wgt>
<wgt id='1357'> +2.7638765e+11 </wgt>
<wgt id='1358'> +2.7293672e+11 </wgt>
<wgt id='1359'> +2.7626588e+11 </wgt>
<wgt id='1360'> +2.6875326e+11 </wgt>
<wgt id='1361'> +2.7554281e+11 </wgt>
<wgt id='1362'> +2.7741438e+11 </wgt>
<wgt id='1363'> +2.6940904e+11 </wgt>
<wgt id='1364'> +2.8175122e+11 </wgt>
<wgt id='1365'> +2.7318636e+11 </wgt>
<wgt id='1366'> +2.7560395e+11 </wgt>
<wgt id='1367'> +2.7636252e+11 </wgt>
<wgt id='1368'> +2.7555578e+11 </wgt>
<wgt id='1369'> +2.7977822e+11 </wgt>
<wgt id='1370'> +2.7364428e+11 </wgt>
<wgt id='1371'> +2.7323873e+11 </wgt>
<wgt id='1372'> +2.8000637e+11 </wgt>
<wgt id='1373'> +2.7915153e+11 </wgt>
<wgt id='1374'> +2.6741375e+11 </wgt>
<wgt id='1375'> +2.7443156e+11 </wgt>
<wgt id='1376'> +2.7639041e+11 </wgt>
<wgt id='1377'> +2.7545077e+11 </wgt>
<wgt id='1378'> +2.7134854e+11 </wgt>
<wgt id='1379'> +2.7398194e+11 </wgt>
<wgt id='1380'> +2.7392033e+11 </wgt>
<wgt id='1381'> +2.8082733e+11 </wgt>
<wgt id='1382'> +2.7513946e+11 </wgt>
<wgt id='1383'> +2.7545615e+11 </wgt>
<wgt id='1384'> +2.7386079e+11 </wgt>
<wgt id='1385'> +2.7402872e+11 </wgt>
<wgt id='1386'> +2.7744081e+11 </wgt>
<wgt id='1387'> +2.7450771e+11 </wgt>
<wgt id='1388'> +2.7179570e+11 </wgt>
<wgt id='1389'> +2.7383236e+11 </wgt>
<wgt id='1390'> +2.7448765e+11 </wgt>
<wgt id='1391'> +2.7325296e+11 </wgt>
<wgt id='1392'> +2.7335438e+11 </wgt>
<wgt id='1393'> +2.7352003e+11 </wgt>
<wgt id='1394'> +2.7322266e+11 </wgt>
<wgt id='1395'> +2.7125646e+11 </wgt>
<wgt id='1396'> +2.7654753e+11 </wgt>
<wgt id='1397'> +2.7612271e+11 </wgt>
<wgt id='1398'> +2.7614436e+11 </wgt>
<wgt id='1399'> +2.7114367e+11 </wgt>
<wgt id='1400'> +2.7255858e+11 </wgt>
<wgt id='1401'> +2.7404559e+11 </wgt>
<wgt id='1402'> +2.7876323e+11 </wgt>
<wgt id='1403'> +2.7864613e+11 </wgt>
<wgt id='1404'> +2.7335475e+11 </wgt>
<wgt id='1405'> +2.8162708e+11 </wgt>
<wgt id='1406'> +2.7527686e+11 </wgt>
<wgt id='1407'> +2.7621133e+11 </wgt>
<wgt id='1408'> +2.7869992e+11 </wgt>
<wgt id='1409'> +2.7341192e+11 </wgt>
<wgt id='1410'> +2.7315838e+11 </wgt>
<wgt id='1411'> +2.7519728e+11 </wgt>
<wgt id='1412'> +2.7438305e+11 </wgt>
<wgt id='1413'> +2.7242994e+11 </wgt>
<wgt id='1414'> +2.7723821e+11 </wgt>
<wgt id='1415'> +2.8128847e+11 </wgt>
<wgt id='1416'> +2.7864938e+11 </wgt>
<wgt id='1417'> +2.6884058e+11 </wgt>
<wgt id='1418'> +2.7716790e+11 </wgt>
<wgt id='1419'> +2.7905774e+11 </wgt>
<wgt id='1420'> +2.7474286e+11 </wgt>
<wgt id='1421'> +2.8156764e+11 </wgt>
<wgt id='1422'> +2.6794497e+11 </wgt>
<wgt id='1423'> +2.8075868e+11 </wgt>
<wgt id='1424'> +2.7653847e+11 </wgt>
<wgt id='1425'> +2.7573424e+11 </wgt>
<wgt id='1426'> +2.7904967e+11 </wgt>
<wgt id='1427'> +2.7547364e+11 </wgt>
<wgt id='1428'> +2.7536281e+11 </wgt>
<wgt id='1429'> +2.7140138e+11 </wgt>
<wgt id='1430'> +2.7078068e+11 </wgt>
<wgt id='1431'> +2.7080360e+11 </wgt>
<wgt id='1432'> +2.7742481e+11 </wgt>
<wgt id='1433'> +2.7614014e+11 </wgt>
<wgt id='1434'> +2.8221756e+11 </wgt>
<wgt id='1435'> +2.7464467e+11 </wgt>
<wgt id='1436'> +2.7966730e+11 </wgt>
<wgt id='1437'> +2.7818869e+11 </wgt>
<wgt id='1438'> +2.7356268e+11 </wgt>
<wgt id='1439'> +2.7625338e+11 </wgt>
<wgt id='1440'> +2.8009788e+11 </wgt>
<wgt id='1441'> +2.7540335e+11 </wgt>
<wgt id='1442'> +2.8314086e+11 </wgt>
<wgt id='1443'> +2.7368476e+11 </wgt>
<wgt id='1444'> +2.7385605e+11 </wgt>
<wgt id='1445'> +2.7846726e+11 </wgt>
<wgt id='1446'> +2.7776720e+11 </wgt>
<wgt id='1447'> +2.7152626e+11 </wgt>
<wgt id='1448'> +2.7787281e+11 </wgt>
<wgt id='1449'> +2.7687704e+11 </wgt>
<wgt id='1450'> +2.7364491e+11 </wgt>
<wgt id='1451'> +2.7676697e+11 </wgt>
<wgt id='1452'> +2.7868979e+11 </wgt>
<wgt id='1453'> +2.8052040e+11 </wgt>
<wgt id='1454'> +2.6887867e+11 </wgt>
<wgt id='1455'> +2.7475155e+11 </wgt>
<wgt id='1456'> +2.7474950e+11 </wgt>
<wgt id='1457'> +2.7429195e+11 </wgt>
<wgt id='1458'> +2.7742075e+11 </wgt>
<wgt id='1459'> +3.0482336e+11 </wgt>
<wgt id='1460'> +3.0014935e+11 </wgt>
<wgt id='1461'> +3.4729741e+11 </wgt>
<wgt id='1462'> +2.9962301e+11 </wgt>
<wgt id='1463'> +2.9987292e+11 </wgt>
<wgt id='1464'> +2.9930253e+11 </wgt>
<wgt id='1465'> +2.9968444e+11 </wgt>
<wgt id='1466'> +2.9956691e+11 </wgt>
<wgt id='1467'> +2.9978605e+11 </wgt>
<wgt id='1468'> +2.9935554e+11 </wgt>
<wgt id='1469'> +2.9917249e+11 </wgt>
<wgt id='1470'> +2.9998894e+11 </wgt>
<wgt id='1471'> +3.0010156e+11 </wgt>
<wgt id='1472'> +2.9913013e+11 </wgt>
<wgt id='1473'> +3.0077358e+11 </wgt>
<wgt id='1474'> +2.9851791e+11 </wgt>
<wgt id='1475'> +3.0072116e+11 </wgt>
<wgt id='1476'> +2.9884444e+11 </wgt>
<wgt id='1477'> +2.9904950e+11 </wgt>
<wgt id='1478'> +3.0096269e+11 </wgt>
<wgt id='1479'> +2.9904728e+11 </wgt>
<wgt id='1480'> +3.0002491e+11 </wgt>
<wgt id='1481'> +2.9920230e+11 </wgt>
<wgt id='1482'> +3.0019033e+11 </wgt>
<wgt id='1483'> +2.9972114e+11 </wgt>
<wgt id='1484'> +2.9948365e+11 </wgt>
<wgt id='1485'> +2.9982419e+11 </wgt>
<wgt id='1486'> +2.9913856e+11 </wgt>
<wgt id='1487'> +2.9987187e+11 </wgt>
<wgt id='1488'> +2.9930999e+11 </wgt>
<wgt id='1489'> +2.9927173e+11 </wgt>
<wgt id='1490'> +3.0057532e+11 </wgt>
<wgt id='1491'> +3.0454294e+11 </wgt>
<wgt id='1492'> +2.9687691e+11 </wgt>
<wgt id='1493'> +2.9612580e+11 </wgt>
<wgt id='1494'> +3.1058321e+11 </wgt>
<wgt id='1495'> +2.9898982e+11 </wgt>
<wgt id='1496'> +3.0030216e+11 </wgt>
<wgt id='1497'> +2.9982189e+11 </wgt>
<wgt id='1498'> +2.9935121e+11 </wgt>
<wgt id='1499'> +3.0148965e+11 </wgt>
<wgt id='1500'> +2.9860181e+11 </wgt>
<wgt id='1501'> +3.0008871e+11 </wgt>
<wgt id='1502'> +2.9838869e+11 </wgt>
<wgt id='1503'> +2.9649639e+11 </wgt>
<wgt id='1504'> +3.0293837e+11 </wgt>
<wgt id='1505'> +3.0065291e+11 </wgt>
<wgt id='1506'> +2.9863407e+11 </wgt>
<wgt id='1507'> +3.0091082e+11 </wgt>
<wgt id='1508'> +2.9892564e+11 </wgt>
<wgt id='1509'> +3.0019493e+11 </wgt>
<wgt id='1510'> +2.9716865e+11 </wgt>
<wgt id='1511'> +3.0072981e+11 </wgt>
<wgt id='1512'> +2.9931113e+11 </wgt>
<wgt id='1513'> +2.9954437e+11 </wgt>
<wgt id='1514'> +2.9969418e+11 </wgt>
<wgt id='1515'> +3.0201963e+11 </wgt>
<wgt id='1516'> +3.0009048e+11 </wgt>
<wgt id='1517'> +2.9925199e+11 </wgt>
<wgt id='1518'> +2.9992554e+11 </wgt>
<wgt id='1519'> +2.9800038e+11 </wgt>
<wgt id='1520'> +3.0077798e+11 </wgt>
<wgt id='1521'> +2.9886179e+11 </wgt>
<wgt id='1522'> +3.0008048e+11 </wgt>
<wgt id='1523'> +3.0099101e+11 </wgt>
<wgt id='1524'> +3.0097430e+11 </wgt>
<wgt id='1525'> +3.0086714e+11 </wgt>
<wgt id='1526'> +3.0039459e+11 </wgt>
<wgt id='1527'> +2.9962301e+11 </wgt>
<wgt id='1528'> +2.9945363e+11 </wgt>
<wgt id='1529'> +2.9926279e+11 </wgt>
<wgt id='1530'> +2.9550272e+11 </wgt>
<wgt id='1531'> +2.9625671e+11 </wgt>
<wgt id='1532'> +2.9386828e+11 </wgt>
<wgt id='1533'> +2.9185259e+11 </wgt>
<wgt id='1534'> +2.9464189e+11 </wgt>
<wgt id='1535'> +2.9872914e+11 </wgt>
<wgt id='1536'> +2.9321832e+11 </wgt>
<wgt id='1537'> +2.9614937e+11 </wgt>
<wgt id='1538'> +2.9309320e+11 </wgt>
<wgt id='1539'> +3.0247434e+11 </wgt>
<wgt id='1540'> +2.9540415e+11 </wgt>
<wgt id='1541'> +2.9639881e+11 </wgt>
<wgt id='1542'> +2.9616497e+11 </wgt>
<wgt id='1543'> +2.9729825e+11 </wgt>
<wgt id='1544'> +2.9435426e+11 </wgt>
<wgt id='1545'> +2.9429824e+11 </wgt>
<wgt id='1546'> +2.9235659e+11 </wgt>
<wgt id='1547'> +2.9855136e+11 </wgt>
<wgt id='1548'> +2.9425321e+11 </wgt>
<wgt id='1549'> +2.9291278e+11 </wgt>
<wgt id='1550'> +2.9687108e+11 </wgt>
<wgt id='1551'> +2.9689852e+11 </wgt>
<wgt id='1552'> +2.9558192e+11 </wgt>
<wgt id='1553'> +2.9807382e+11 </wgt>
<wgt id='1554'> +2.9609874e+11 </wgt>
<wgt id='1555'> +2.9685873e+11 </wgt>
<wgt id='1556'> +2.9861879e+11 </wgt>
<wgt id='1557'> +2.9550570e+11 </wgt>
<wgt id='1558'> +2.9623819e+11 </wgt>
<wgt id='1559'> +2.9423020e+11 </wgt>
<wgt id='1560'> +2.9503876e+11 </wgt>
<wgt id='1561'> +2.9232973e+11 </wgt>
<wgt id='1562'> +2.9482286e+11 </wgt>
<wgt id='1563'> +2.9618489e+11 </wgt>
<wgt id='1564'> +2.9586972e+11 </wgt>
<wgt id='1565'> +2.9844208e+11 </wgt>
<wgt id='1566'> +2.9654076e+11 </wgt>
<wgt id='1567'> +2.9981626e+11 </wgt>
<wgt id='1568'> +2.9620006e+11 </wgt>
<wgt id='1569'> +2.9589483e+11 </wgt>
<wgt id='1570'> +2.9810486e+11 </wgt>
<wgt id='1571'> +2.9604354e+11 </wgt>
<wgt id='1572'> +2.9797266e+11 </wgt>
<wgt id='1573'> +2.9906696e+11 </wgt>
<wgt id='1574'> +2.6580188e+11 </wgt>
<wgt id='1575'> +2.6587434e+11 </wgt>
<wgt id='1576'> +2.6573409e+11 </wgt>
<wgt id='1577'> +2.6582019e+11 </wgt>
<wgt id='1578'> +2.6641334e+11 </wgt>
<wgt id='1579'> +2.6666894e+11 </wgt>
<wgt id='1580'> +2.6644143e+11 </wgt>
<wgt id='1581'> +2.6517216e+11 </wgt>
<wgt id='1582'> +2.6486391e+11 </wgt>
<wgt id='1583'> +2.6535955e+11 </wgt>
<wgt id='1584'> +2.6638208e+11 </wgt>
<wgt id='1585'> +2.6599032e+11 </wgt>
<wgt id='1586'> +2.6477437e+11 </wgt>
<wgt id='1587'> +2.6503239e+11 </wgt>
<wgt id='1588'> +2.6452751e+11 </wgt>
<wgt id='1589'> +2.6555109e+11 </wgt>
<wgt id='1590'> +2.6561361e+11 </wgt>
<wgt id='1591'> +2.6586968e+11 </wgt>
<wgt id='1592'> +2.6476755e+11 </wgt>
<wgt id='1593'> +2.6493688e+11 </wgt>
<wgt id='1594'> +2.6661368e+11 </wgt>
<wgt id='1595'> +2.6357011e+11 </wgt>
<wgt id='1596'> +2.6937878e+11 </wgt>
<wgt id='1597'> +2.6753606e+11 </wgt>
<wgt id='1598'> +2.6776297e+11 </wgt>
<wgt id='1599'> +2.6306022e+11 </wgt>
<wgt id='1600'> +2.7022197e+11 </wgt>
<wgt id='1601'> +2.6794502e+11 </wgt>
<wgt id='1602'> +2.6585950e+11 </wgt>
<wgt id='1603'> +2.7621174e+11 </wgt>
<wgt id='1604'> +2.6584314e+11 </wgt>
</rwgt>
</event>
<event>
 9      1 +2.8343000e+11 1.40000300e+03 7.81738600e-03 7.88881000e-02
       21 -1    0    0  504  503 +0.0000000000e+00 +0.0000000000e+00 +6.8584714687e+02 6.8584714687e+02 0.0000000000e+00 0.0000e+00 -1.0000e+00
       21 -1    0    0  503  504 -0.0000000000e+00 -0.0000000000e+00 -7.1444808155e+02 7.1444808155e+02 0.0000000000e+00 0.0000e+00 -1.0000e+00
       45  2    1    2    0    0 -5.6843418861e-14 +1.1368683772e-13 -2.8600934684e+01 1.4002952284e+03 1.4000031119e+03 0.0000e+00 0.0000e+00
       25  2    3    3    0    0 -2.1968292330e+02 +6.4650668079e+02 +9.4824037784e+01 7.0060582695e+02 1.2500180610e+02 0.0000e+00 0.0000e+00
       35  2    3    3    0    0 +2.1968292330e+02 -6.4650668079e+02 -1.2342497247e+02 6.9968940146e+02 9.0000331093e+01 0.0000e+00 0.0000e+00
        5  1    5    5  501    0 +2.2489866149e+02 -6.4092049087e+02 -1.1801934241e+02 6.8942353204e+02 4.2140000000e+00 0.0000e+00 -1.0000e+00
       -5  1    5    5    0  501 -5.2157381895e+00 -5.5861899227e+00 -5.4056300539e+00 1.0265869422e+01 4.2140000000e+00 0.0000e+00 -1.0000e+00
        5  1    4    4  502    0 +1.0500737624e+01 +2.2937088818e+01 +1.8417882587e+01 3.1517482912e+01 4.2140000000e+00 0.0000e+00 -1.0000e+00
       -5  1    4    4    0  502 -2.3018366092e+02 +6.2356959197e+02 +7.6406155197e+01 6.6908834404e+02 4.2140000000e+00 0.0000e+00 -1.0000e+00
<mgrwt>
<rscale>  0 0.14000031E+04</rscale>
<asrwt>0</asrwt>
<pdfrwt beam="1">  1       21 0.10551495E+00 0.14000031E+04</pdfrwt>
<pdfrwt beam="2">  1       21 0.10991509E+00 0.14000031E+04</pdfrwt>
<totfact> 0.35875111E+02</totfact>
</mgrwt>
<rwgt>
<wgt id='1001'> +2.8343000e+11 </wgt>
<wgt id='1002'> +2.8414960e+11 </wgt>
<wgt id='1003'> +2.8413430e+11 </wgt>
<wgt id='1004'> +3.1850533e+11 </wgt>
<wgt id='1005'> +2.8343000e+11 </wgt>
<wgt id='1006'> +2.8343000e+11 </wgt>
<wgt id='1007'> +2.8414960e+11 </wgt>
<wgt id='1008'> +2.8413430e+11 </wgt>
<wgt id='1009'> +3.1850533e+11 </wgt>
<wgt id='1010'> +2.8343000e+11 </wgt>
<wgt id='1011'> +2.8343000e+11 </wgt>
<wgt id='1012'> +2.8414960e+11 </wgt>
<wgt id='1013'> +2.8413430e+11 </wgt>
<wgt id='1014'> +3.1850533e+11 </wgt>
<wgt id='1015'> +2.8343000e+11 </wgt>
<wgt id='1016'> +2.5470399e+11 </wgt>
<wgt id='1017'> +2.5531402e+11 </wgt>
<wgt id='1018'> +2.5530105e+11 </wgt>
<wgt id='1019'> +2.8413430e+11 </wgt>
<wgt id='1020'> +2.5470399e+11 </wgt>
<wgt id='1021'> +2.5470399e+11 </wgt>
<wgt id='1022'> +2.5531402e+11 </wgt>
<wgt id='1023'> +2.5530105e+11 </wgt>
<wgt id='1024'> +2.8413430e+11 </wgt>
<wgt id='1025'> +2.5470399e+11 </wgt>
<wgt id='1026'> +2.5470399e+11 </wgt>
<wgt id='1027'> +2.5531402e+11 </wgt>
<wgt id='1028'> +2.5530105e+11 </wgt>
<wgt id='1029'> +2.8413430e+11 </wgt>
<wgt id='1030'> +2.5470399e+11 </wgt>
<wgt id='1031'> +3.1766038e+11 </wgt>
<wgt id='1032'> +3.1852369e+11 </wgt>
<wgt id='1033'> +3.1850533e+11 </wgt>
<wgt id='1034'> +3.5981582e+11 </wgt>
<wgt id='1035'> +3.1766038e+11 </wgt>
<wgt id='1036'> +3.1766038e+11 </wgt>
<wgt id='1037'> +3.1852369e+11 </wgt>
<wgt id='1038'> +3.1850533e+11 </wgt>
<wgt id='1039'> +3.5981582e+11 </wgt>
<wgt id='1040'> +3.1766038e+11 </wgt>
<wgt id='1041'> +3.1766038e+11 </wgt>
<wgt id='1042'> +3.1852369e+11 </wgt>
<wgt id='1043'> +3.1850533e+11 </wgt>
<wgt id='1044'> +3.5981582e+11 </wgt>
<wgt id='1045'> +3.1766038e+11 </wgt>
<wgt id='1046'> +2.8343000e+11 </wgt>
<wgt id='1047'> +2.8343000e+11 </wgt>
<wgt id='1048'> +2.8343000e+11 </wgt>
<wgt id='1049'> +2.8225654e+11 </wgt>
<wgt id='1050'> +2.8304323e+11 </wgt>
<wgt id='1051'> +2.8377054e+11 </wgt>
<wgt id='1052'> +2.8419561e+11 </wgt>
<wgt id='1053'> +2.8189615e+11 </wgt>
<wgt id='1054'> +2.8388614e+11 </wgt>
<wgt id='1055'> +2.8224834e+11 </wgt>
<wgt id='1056'> +2.8179682e+11 </wgt>
<wgt id='1057'> +2.8422777e+11 </wgt>
<wgt id='1058'> +2.8305957e+11 </wgt>
<wgt id='1059'> +2.8541419e+11 </wgt>
<wgt id='1060'> +2.8366120e+11 </wgt>
<wgt id='1061'> +2.8421614e+11 </wgt>
<wgt id='1062'> +2.8400431e+11 </wgt>
<wgt id='1063'> +2.8363623e+11 </wgt>
<wgt id='1064'> +2.8470946e+11 </wgt>
<wgt id='1065'> +2.8487995e+11 </wgt>
<wgt id='1066'> +2.8201934e+11 </wgt>
<wgt id='1067'> +2.7964771e+11 </wgt>
<wgt id='1068'> +2.8382871e+11 </wgt>
<wgt id='1069'> +2.8279952e+11 </wgt>
<wgt id='1070'> +2.8340416e+11 </wgt>
<wgt id='1071'> +2.8495239e+11 </wgt>
<wgt id='1072'> +2.8110779e+11 </wgt>
<wgt id='1073'> +2.8412619e+11 </wgt>
<wgt id='1074'> +2.8302129e+11 </wgt>
<wgt id='1075'> +2.8440243e+11 </wgt>
<wgt id='1076'> +2.8329775e+11 </wgt>
<wgt id='1077'> +2.8299568e+11 </wgt>
<wgt id='1078'> +2.8409677e+11 </wgt>
<wgt id='1079'> +2.8176754e+11 </wgt>
<wgt id='1080'> +2.8276119e+11 </wgt>
<wgt id='1081'> +2.8302971e+11 </wgt>
<wgt id='1082'> +2.8203800e+11 </wgt>
<wgt id='1083'> +2.8400172e+11 </wgt>
<wgt id='1084'> +2.8407097e+11 </wgt>
<wgt id='1085'> +2.8285922e+11 </wgt>
<wgt id='1086'> +2.8278679e+11 </wgt>
<wgt id='1087'> +2.8307980e+11 </wgt>
<wgt id='1088'> +2.8293509e+11 </wgt>
<wgt id='1089'> +2.8279743e+11 </wgt>
<wgt id='1090'> +2.8413210e+11 </wgt>
<wgt id='1091'> +2.8348034e+11 </wgt>
<wgt id='1092'> +2.8371052e+11 </wgt>
<wgt id='1093'> +2.8332955e+11 </wgt>
<wgt id='1094'> +2.8292044e+11 </wgt>
<wgt id='1095'> +2.8354453e+11 </wgt>
<wgt id='1096'> +2.8339358e+11 </wgt>
<wgt id='1097'> +2.8303950e+11 </wgt>
<wgt id='1098'> +2.8307663e+11 </wgt>
<wgt id='1099'> +2.8323959e+11 </wgt>
<wgt id='1100'> +2.8402240e+11 </wgt>
<wgt id='1101'> +2.8341440e+11 </wgt>
<wgt id='1102'> +2.8328963e+11 </wgt>
<wgt id='1103'> +2.8310083e+11 </wgt>
<wgt id='1104'> +2.8310270e+11 </wgt>
<wgt id='1105'> +2.8353391e+11 </wgt>
<wgt id='1106'> +2.8377153e+11 </wgt>
<wgt id='1107'> +2.8334627e+11 </wgt>
<wgt id='1108'> +2.8333498e+11 </wgt>
<wgt id='1109'> +2.8324474e+11 </wgt>
<wgt id='1110'> +2.8376152e+11 </wgt>
<wgt id='1111'> +2.8356172e+11 </wgt>
<wgt id='1112'> +2.8339571e+11 </wgt>
<wgt id='1113'> +2.8373605e+11 </wgt>
<wgt id='1114'> +2.8311008e+11 </wgt>
<wgt id='1115'> +2.8326331e+11 </wgt>
<wgt id='1116'> +2.8372882e+11 </wgt>
<wgt id='1117'> +2.8337567e+11 </wgt>
<wgt id='1118'> +2.8353528e+11 </wgt>
<wgt id='1119'> +2.8325657e+11 </wgt>
<wgt id='1120'> +2.8329001e+11 </wgt>
<wgt id='1121'> +2.8350408e+11 </wgt>
<wgt id='1122'> +2.8322663e+11 </wgt>
<wgt id='1123'> +2.8337137e+11 </wgt>
<wgt id='1124'> +2.8332878e+11 </wgt>
<wgt id='1125'> +2.8359100e+11 </wgt>
<wgt id='1126'> +2.8353512e+11 </wgt>
<wgt id='1127'> +2.8332182e+11 </wgt>
<wgt id='1128'> +2.8347619e+11 </wgt>
<wgt id='1129'> +2.8339577e+11 </wgt>
<wgt id='1130'> +2.8346838e+11 </wgt>
<wgt id='1131'> +2.8369092e+11 </wgt>
<wgt id='1132'> +2.8335371e+11 </wgt>
<wgt id='1133'> +2.8350595e+11 </wgt>
<wgt id='1134'> +2.8341202e+11 </wgt>
<wgt id='1135'> +2.8346716e+11 </wgt>
<wgt id='1136'> +2.8340319e+11 </wgt>
<wgt id='1137'> +2.8329141e+11 </wgt>
<wgt id='1138'> +2.8354138e+11 </wgt>
<wgt id='1139'> +2.8346805e+11 </wgt>
<wgt id='1140'> +2.8364363e+11 </wgt>
<wgt id='1141'> +2.8330850e+11 </wgt>
<wgt id='1142'> +2.8349842e+11 </wgt>
<wgt id='1143'> +2.8359104e+11 </wgt>
<wgt id='1144'> +2.8334620e+11 </wgt>
<wgt id='1145'> +2.8355217e+11 </wgt>
<wgt id='1146'> +2.8340869e+11 </wgt>
<wgt id='1147'> +2.8347179e+11 </wgt>
<wgt id='1148'> +2.8343000e+11 </wgt>
<wgt id='1149'> +2.8343000e+11 </wgt>
<wgt id='1150'> +2.9081574e+11 </wgt>
<wgt id='1151'> +2.8134239e+11 </wgt>
<wgt id='1152'> +2.8579153e+11 </wgt>
<wgt id='1153'> +2.8778914e+11 </wgt>
<wgt id='1154'> +2.8759402e+11 </wgt>
<wgt id='1155'> +2.8828217e+11 </wgt>
<wgt id='1156'> +2.7649236e+11 </wgt>
<wgt id='1157'> +2.7678493e+11 </wgt>
<wgt id='1158'> +2.7767990e+11 </wgt>
<wgt id='1159'> +2.9605152e+11 </wgt>
<wgt id='1160'> +2.8147084e+11 </wgt>
<wgt id='1161'> +2.8556749e+11 </wgt>
<wgt id='1162'> +2.7587804e+11 </wgt>
<wgt id='1163'> +2.8690947e+11 </wgt>
<wgt id='1164'> +2.6752864e+11 </wgt>
<wgt id='1165'> +2.7946753e+11 </wgt>
<wgt id='1166'> +2.8512666e+11 </wgt>
<wgt id='1167'> +2.8004031e+11 </wgt>
<wgt id='1168'> +2.7662797e+11 </wgt>
<wgt id='1169'> +2.7600379e+11 </wgt>
<wgt id='1170'> +2.7565531e+11 </wgt>
<wgt id='1171'> +2.7352479e+11 </wgt>
<wgt id='1172'> +2.7765611e+11 </wgt>
<wgt id='1173'> +2.8812847e+11 </wgt>
<wgt id='1174'> +2.7979770e+11 </wgt>
<wgt id='1175'> +2.7511899e+11 </wgt>
<wgt id='1176'> +2.8639367e+11 </wgt>
<wgt id='1177'> +2.7935200e+11 </wgt>
<wgt id='1178'> +2.8318131e+11 </wgt>
<wgt id='1179'> +2.8023073e+11 </wgt>
<wgt id='1180'> +2.8331351e+11 </wgt>
<wgt id='1181'> +2.7579995e+11 </wgt>
<wgt id='1182'> +2.8174365e+11 </wgt>
<wgt id='1183'> +2.9596686e+11 </wgt>
<wgt id='1184'> +2.7561010e+11 </wgt>
<wgt id='1185'> +2.8008699e+11 </wgt>
<wgt id='1186'> +2.7144567e+11 </wgt>
<wgt id='1187'> +2.8583217e+11 </wgt>
<wgt id='1188'> +2.7637125e+11 </wgt>
<wgt id='1189'> +2.8576827e+11 </wgt>
<wgt id='1190'> +2.8436470e+11 </wgt>
<wgt id='1191'> +2.9539908e+11 </wgt>
<wgt id='1192'> +2.9197378e+11 </wgt>
<wgt id='1193'> +2.9553940e+11 </wgt>
<wgt id='1194'> +2.8478079e+11 </wgt>
<wgt id='1195'> +2.8380458e+11 </wgt>
<wgt id='1196'> +2.9240944e+11 </wgt>
<wgt id='1197'> +2.9420803e+11 </wgt>
<wgt id='1198'> +2.7498124e+11 </wgt>
<wgt id='1199'> +2.8163781e+11 </wgt>
<wgt id='1200'> +2.8213908e+11 </wgt>
<wgt id='1201'> +2.7934049e+11 </wgt>
<wgt id='1202'> +2.8874612e+11 </wgt>
<wgt id='1203'> +2.7752056e+11 </wgt>
<wgt id='1204'> +2.8854991e+11 </wgt>
<wgt id='1205'> +2.8521745e+11 </wgt>
<wgt id='1206'> +2.7638322e+11 </wgt>
<wgt id='1207'> +2.9324762e+11 </wgt>
<wgt id='1208'> +2.7297758e+11 </wgt>
<wgt id='1209'> +2.7849050e+11 </wgt>
<wgt id='1210'> +2.8019943e+11 </wgt>
<wgt id='1211'> +2.8572018e+11 </wgt>
<wgt id='1212'> +2.8372813e+11 </wgt>
<wgt id='1213'> +2.9360382e+11 </wgt>
<wgt id='1214'> +2.7570167e+11 </wgt>
<wgt id='1215'> +2.9225515e+11 </wgt>
<wgt id='1216'> +2.8612443e+11 </wgt>
<wgt id='1217'> +2.7590645e+11 </wgt>
<wgt id='1218'> +2.8481386e+11 </wgt>
<wgt id='1219'> +2.9446851e+11 </wgt>
<wgt id='1220'> +2.7700385e+11 </wgt>
<wgt id='1221'> +2.7498494e+11 </wgt>
<wgt id='1222'> +2.8050270e+11 </wgt>
<wgt id='1223'> +2.7259579e+11 </wgt>
<wgt id='1224'> +2.8354806e+11 </wgt>
<wgt id='1225'> +2.8807078e+11 </wgt>
<wgt id='1226'> +2.9084370e+11 </wgt>
<wgt id='1227'> +2.7275719e+11 </wgt>
<wgt id='1228'> +2.8136354e+11 </wgt>
<wgt id='1229'> +3.0288178e+11 </wgt>
<wgt id='1230'> +2.9434008e+11 </wgt>
<wgt id='1231'> +2.7946753e+11 </wgt>
<wgt id='1232'> +2.8924381e+11 </wgt>
<wgt id='1233'> +2.7825920e+11 </wgt>
<wgt id='1234'> +2.7634697e+11 </wgt>
<wgt id='1235'> +3.0321197e+11 </wgt>
<wgt id='1236'> +2.7659870e+11 </wgt>
<wgt id='1237'> +2.8992656e+11 </wgt>
<wgt id='1238'> +2.8993475e+11 </wgt>
<wgt id='1239'> +2.9234260e+11 </wgt>
<wgt id='1240'> +2.8578523e+11 </wgt>
<wgt id='1241'> +2.8193990e+11 </wgt>
<wgt id='1242'> +2.8082211e+11 </wgt>
<wgt id='1243'> +2.8910168e+11 </wgt>
<wgt id='1244'> +2.8116186e+11 </wgt>
<wgt id='1245'> +2.8191373e+11 </wgt>
<wgt id='1246'> +3.0735457e+11 </wgt>
<wgt id='1247'> +2.8384525e+11 </wgt>
<wgt id='1248'> +2.7548724e+11 </wgt>
<wgt id='1249'> +2.7776064e+11 </wgt>
<wgt id='1250'> +2.9211662e+11 </wgt>
<wgt id='1251'> +2.9863491e+11 </wgt>
<wgt id='1252'> +2.8713932e+11 </wgt>
<wgt id='1253'> +2.8512809e+11 </wgt>
<wgt id='1254'> +2.8863869e+11 </wgt>
<wgt id='1255'> +2.9789538e+11 </wgt>
<wgt id='1256'> +2.9500049e+11 </wgt>
<wgt id='1257'> +2.8504524e+11 </wgt>
<wgt id='1258'> +3.0045313e+11 </wgt>
<wgt id='1259'> +2.9456481e+11 </wgt>
<wgt id='1260'> +3.2547612e+11 </wgt>
<wgt id='1261'> +3.1375676e+11 </wgt>
<wgt id='1262'> +2.8953011e+11 </wgt>
<wgt id='1263'> +2.9663513e+11 </wgt>
<wgt id='1264'> +2.9841344e+11 </wgt>
<wgt id='1265'> +2.9879703e+11 </wgt>
<wgt id='1266'> +2.9415701e+11 </wgt>
<wgt id='1267'> +3.1469712e+11 </wgt>
<wgt id='1268'> +2.9430948e+11 </wgt>
<wgt id='1269'> +2.8719047e+11 </wgt>
<wgt id='1270'> +2.9100529e+11 </wgt>
<wgt id='1271'> +2.7971852e+11 </wgt>
<wgt id='1272'> +2.9333583e+11 </wgt>
<wgt id='1273'> +2.9193357e+11 </wgt>
<wgt id='1274'> +2.8769447e+11 </wgt>
<wgt id='1275'> +2.9860275e+11 </wgt>
<wgt id='1276'> +2.9531213e+11 </wgt>
<wgt id='1277'> +2.9069270e+11 </wgt>
<wgt id='1278'> +2.8604787e+11 </wgt>
<wgt id='1279'> +2.8122442e+11 </wgt>
<wgt id='1280'> +2.9413043e+11 </wgt>
<wgt id='1281'> +2.8585041e+11 </wgt>
<wgt id='1282'> +2.9662534e+11 </wgt>
<wgt id='1283'> +2.9593211e+11 </wgt>
<wgt id='1284'> +3.1491323e+11 </wgt>
<wgt id='1285'> +3.0818229e+11 </wgt>
<wgt id='1286'> +3.2864665e+11 </wgt>
<wgt id='1287'> +3.0324232e+11 </wgt>
<wgt id='1288'> +3.2341399e+11 </wgt>
<wgt id='1289'> +3.1295315e+11 </wgt>
<wgt id='1290'> +3.1136453e+11 </wgt>
<wgt id='1291'> +2.7789047e+11 </wgt>
<wgt id='1292'> +2.9726155e+11 </wgt>
<wgt id='1293'> +3.0003402e+11 </wgt>
<wgt id='1294'> +3.1422212e+11 </wgt>
<wgt id='1295'> +2.9769134e+11 </wgt>
<wgt id='1296'> +3.1507859e+11 </wgt>
<wgt id='1297'> +2.9558692e+11 </wgt>
<wgt id='1298'> +2.8776179e+11 </wgt>
<wgt id='1299'> +2.9842030e+11 </wgt>
<wgt id='1300'> +2.8794969e+11 </wgt>
<wgt id='1301'> +2.8104051e+11 </wgt>
<wgt id='1302'> +2.7523530e+11 </wgt>
<wgt id='1303'> +2.9827837e+11 </wgt>
<wgt id='1304'> +3.0557796e+11 </wgt>
<wgt id='1305'> +2.9828858e+11 </wgt>
<wgt id='1306'> +3.0514127e+11 </wgt>
<wgt id='1307'> +3.0404094e+11 </wgt>
<wgt id='1308'> +3.2517556e+11 </wgt>
<wgt id='1309'> +2.9566879e+11 </wgt>
<wgt id='1310'> +3.0215229e+11 </wgt>
<wgt id='1311'> +3.0819175e+11 </wgt>
<wgt id='1312'> +2.9890234e+11 </wgt>
<wgt id='1313'> +2.9670035e+11 </wgt>
<wgt id='1314'> +3.0438075e+11 </wgt>
<wgt id='1315'> +2.8478750e+11 </wgt>
<wgt id='1316'> +2.9843622e+11 </wgt>
<wgt id='1317'> +3.0113588e+11 </wgt>
<wgt id='1318'> +2.8603238e+11 </wgt>
<wgt id='1319'> +3.0805530e+11 </wgt>
<wgt id='1320'> +3.0881885e+11 </wgt>
<wgt id='1321'> +2.9364425e+11 </wgt>
<wgt id='1322'> +2.9775505e+11 </wgt>
<wgt id='1323'> +2.9877625e+11 </wgt>
<wgt id='1324'> +3.0115240e+11 </wgt>
<wgt id='1325'> +3.1086084e+11 </wgt>
<wgt id='1326'> +3.0261033e+11 </wgt>
<wgt id='1327'> +2.9301515e+11 </wgt>
<wgt id='1328'> +3.0284932e+11 </wgt>
<wgt id='1329'> +2.9770126e+11 </wgt>
<wgt id='1330'> +2.9082748e+11 </wgt>
<wgt id='1331'> +3.1911042e+11 </wgt>
<wgt id='1332'> +2.8579835e+11 </wgt>
<wgt id='1333'> +3.0043751e+11 </wgt>
<wgt id='1334'> +3.1381841e+11 </wgt>
<wgt id='1335'> +2.9244273e+11 </wgt>
<wgt id='1336'> +3.0194325e+11 </wgt>
<wgt id='1337'> +3.0843395e+11 </wgt>
<wgt id='1338'> +2.8984445e+11 </wgt>
<wgt id='1339'> +3.2040095e+11 </wgt>
<wgt id='1340'> +3.0153204e+11 </wgt>
<wgt id='1341'> +3.0448337e+11 </wgt>
<wgt id='1342'> +3.1590059e+11 </wgt>
<wgt id='1343'> +3.1029252e+11 </wgt>
<wgt id='1344'> +3.0296681e+11 </wgt>
<wgt id='1345'> +2.8040803e+11 </wgt>
<wgt id='1346'> +2.9936181e+11 </wgt>
<wgt id='1347'> +2.8666361e+11 </wgt>
<wgt id='1348'> +2.8792935e+11 </wgt>
<wgt id='1349'> +2.8995884e+11 </wgt>
<wgt id='1350'> +3.0026000e+11 </wgt>
<wgt id='1351'> +2.9689199e+11 </wgt>
<wgt id='1352'> +3.0035725e+11 </wgt>
<wgt id='1353'> +2.9704516e+11 </wgt>
<wgt id='1354'> +3.0683299e+11 </wgt>
<wgt id='1355'> +2.7541675e+11 </wgt>
<wgt id='1356'> +2.7817387e+11 </wgt>
<wgt id='1357'> +2.7633765e+11 </wgt>
<wgt id='1358'> +2.7280636e+11 </wgt>
<wgt id='1359'> +2.7620279e+11 </wgt>
<wgt id='1360'> +2.6857055e+11 </wgt>
<wgt id='1361'> +2.7549420e+11 </wgt>
<wgt id='1362'> +2.7708748e+11 </wgt>
<wgt id='1363'> +2.6919260e+11 </wgt>
<wgt id='1364'> +2.8175756e+11 </wgt>
<wgt id='1365'> +2.7308366e+11 </wgt>
<wgt id='1366'> +2.7568291e+11 </wgt>
<wgt id='1367'> +2.7628320e+11 </wgt>
<wgt id='1368'> +2.7544191e+11 </wgt>
<wgt id='1369'> +2.7981506e+11 </wgt>
<wgt id='1370'> +2.7353913e+11 </wgt>
<wgt id='1371'> +2.7297940e+11 </wgt>
<wgt id='1372'> +2.7999014e+11 </wgt>
<wgt id='1373'> +2.7908509e+11 </wgt>
<wgt id='1374'> +2.6731764e+11 </wgt>
<wgt id='1375'> +2.7423939e+11 </wgt>
<wgt id='1376'> +2.7637232e+11 </wgt>
<wgt id='1377'> +2.7529234e+11 </wgt>
<wgt id='1378'> +2.7111015e+11 </wgt>
<wgt id='1379'> +2.7388495e+11 </wgt>
<wgt id='1380'> +2.7387666e+11 </wgt>
<wgt id='1381'> +2.8074413e+11 </wgt>
<wgt id='1382'> +2.7506497e+11 </wgt>
<wgt id='1383'> +2.7545750e+11 </wgt>
<wgt id='1384'> +2.7383035e+11 </wgt>
<wgt id='1385'> +2.7404014e+11 </wgt>
<wgt id='1386'> +2.7747178e+11 </wgt>
<wgt id='1387'> +2.7444417e+11 </wgt>
<wgt id='1388'> +2.7175811e+11 </wgt>
<wgt id='1389'> +2.7367508e+11 </wgt>
<wgt id='1390'> +2.7425730e+11 </wgt>
<wgt id='1391'> +2.7315416e+11 </wgt>
<wgt id='1392'> +2.7326511e+11 </wgt>
<wgt id='1393'> +2.7332370e+11 </wgt>
<wgt id='1394'> +2.7309515e+11 </wgt>
<wgt id='1395'> +2.7118646e+11 </wgt>
<wgt id='1396'> +2.7647842e+11 </wgt>
<wgt id='1397'> +2.7600295e+11 </wgt>
<wgt id='1398'> +2.7600178e+11 </wgt>
<wgt id='1399'> +2.7096133e+11 </wgt>
<wgt id='1400'> +2.7252986e+11 </wgt>
<wgt id='1401'> +2.7384555e+11 </wgt>
<wgt id='1402'> +2.7868834e+11 </wgt>
<wgt id='1403'> +2.7840215e+11 </wgt>
<wgt id='1404'> +2.7307122e+11 </wgt>
<wgt id='1405'> +2.8152882e+11 </wgt>
<wgt id='1406'> +2.7509658e+11 </wgt>
<wgt id='1407'> +2.7614595e+11 </wgt>
<wgt id='1408'> +2.7853424e+11 </wgt>
<wgt id='1409'> +2.7338836e+11 </wgt>
<wgt id='1410'> +2.7328576e+11 </wgt>
<wgt id='1411'> +2.7509711e+11 </wgt>
<wgt id='1412'> +2.7435484e+11 </wgt>
<wgt id='1413'> +2.7231257e+11 </wgt>
<wgt id='1414'> +2.7708187e+11 </wgt>
<wgt id='1415'> +2.8130196e+11 </wgt>
<wgt id='1416'> +2.7859194e+11 </wgt>
<wgt id='1417'> +2.6859898e+11 </wgt>
<wgt id='1418'> +2.7714388e+11 </wgt>
<wgt id='1419'> +2.7892904e+11 </wgt>
<wgt id='1420'> +2.7467519e+11 </wgt>
<wgt id='1421'> +2.8146982e+11 </wgt>
<wgt id='1422'> +2.6779025e+11 </wgt>
<wgt id='1423'> +2.8067435e+11 </wgt>
<wgt id='1424'> +2.7641448e+11 </wgt>
<wgt id='1425'> +2.7560149e+11 </wgt>
<wgt id='1426'> +2.7903995e+11 </wgt>
<wgt id='1427'> +2.7539317e+11 </wgt>
<wgt id='1428'> +2.7528697e+11 </wgt>
<wgt id='1429'> +2.7111064e+11 </wgt>
<wgt id='1430'> +2.7063922e+11 </wgt>
<wgt id='1431'> +2.7075771e+11 </wgt>
<wgt id='1432'> +2.7744422e+11 </wgt>
<wgt id='1433'> +2.7615635e+11 </wgt>
<wgt id='1434'> +2.8204905e+11 </wgt>
<wgt id='1435'> +2.7456708e+11 </wgt>
<wgt id='1436'> +2.7961804e+11 </wgt>
<wgt id='1437'> +2.7822040e+11 </wgt>
<wgt id='1438'> +2.7339831e+11 </wgt>
<wgt id='1439'> +2.7601260e+11 </wgt>
<wgt id='1440'> +2.8009058e+11 </wgt>
<wgt id='1441'> +2.7543127e+11 </wgt>
<wgt id='1442'> +2.8317396e+11 </wgt>
<wgt id='1443'> +2.7361141e+11 </wgt>
<wgt id='1444'> +2.7358958e+11 </wgt>
<wgt id='1445'> +2.7846367e+11 </wgt>
<wgt id='1446'> +2.7751968e+11 </wgt>
<wgt id='1447'> +2.7135613e+11 </wgt>
<wgt id='1448'> +2.7777018e+11 </wgt>
<wgt id='1449'> +2.7668903e+11 </wgt>
<wgt id='1450'> +2.7347655e+11 </wgt>
<wgt id='1451'> +2.7664247e+11 </wgt>
<wgt id='1452'> +2.7866076e+11 </wgt>
<wgt id='1453'> +2.8063273e+11 </wgt>
<wgt id='1454'> +2.6883847e+11 </wgt>
<wgt id='1455'> +2.7467088e+11 </wgt>
<wgt id='1456'> +2.7466089e+11 </wgt>
<wgt id='1457'> +2.7418830e+11 </wgt>
<wgt id='1458'> +2.7720864e+11 </wgt>
<wgt id='1459'> +3.0508405e+11 </wgt>
<wgt id='1460'> +3.0041008e+11 </wgt>
<wgt id='1461'> +3.4719099e+11 </wgt>
<wgt id='1462'> +2.9973238e+11 </wgt>
<wgt id='1463'> +2.9998330e+11 </wgt>
<wgt id='1464'> +2.9941060e+11 </wgt>
<wgt id='1465'> +2.9979364e+11 </wgt>
<wgt id='1466'> +2.9967643e+11 </wgt>
<wgt id='1467'> +2.9989701e+11 </wgt>
<wgt id='1468'> +2.9946230e+11 </wgt>
<wgt id='1469'> +2.9928112e+11 </wgt>
<wgt id='1470'> +3.0009891e+11 </wgt>
<wgt id='1471'> +3.0021212e+11 </wgt>
<wgt id='1472'> +2.9923828e+11 </wgt>
<wgt id='1473'> +3.0088177e+11 </wgt>
<wgt id='1474'> +2.9862842e+11 </wgt>
<wgt id='1475'> +3.0082992e+11 </wgt>
<wgt id='1476'> +2.9895424e+11 </wgt>
<wgt id='1477'> +2.9915781e+11 </wgt>
<wgt id='1478'> +3.0107454e+11 </wgt>
<wgt id='1479'> +2.9914905e+11 </wgt>
<wgt id='1480'> +3.0013945e+11 </wgt>
<wgt id='1481'> +2.9931386e+11 </wgt>
<wgt id='1482'> +3.0029672e+11 </wgt>
<wgt id='1483'> +2.9983131e+11 </wgt>
<wgt id='1484'> +2.9959184e+11 </wgt>
<wgt id='1485'> +2.9993296e+11 </wgt>
<wgt id='1486'> +2.9924937e+11 </wgt>
<wgt id='1487'> +2.9997966e+11 </wgt>
<wgt id='1488'> +2.9942120e+11 </wgt>
<wgt id='1489'> +2.9938163e+11 </wgt>
<wgt id='1490'> +3.0068324e+11 </wgt>
<wgt id='1491'> +3.0465207e+11 </wgt>
<wgt id='1492'> +2.9698625e+11 </wgt>
<wgt id='1493'> +2.9623858e+11 </wgt>
<wgt id='1494'> +3.1068151e+11 </wgt>
<wgt id='1495'> +2.9910357e+11 </wgt>
<wgt id='1496'> +3.0040681e+11 </wgt>
<wgt id='1497'> +2.9993130e+11 </wgt>
<wgt id='1498'> +2.9946053e+11 </wgt>
<wgt id='1499'> +3.0159495e+11 </wgt>
<wgt id='1500'> +2.9871336e+11 </wgt>
<wgt id='1501'> +3.0020008e+11 </wgt>
<wgt id='1502'> +2.9849276e+11 </wgt>
<wgt id='1503'> +2.9662490e+11 </wgt>
<wgt id='1504'> +3.0302310e+11 </wgt>
<wgt id='1505'> +3.0077008e+11 </wgt>
<wgt id='1506'> +2.9873677e+11 </wgt>
<wgt id='1507'> +3.0097805e+11 </wgt>
<wgt id='1508'> +2.9913055e+11 </wgt>
<wgt id='1509'> +3.0030004e+11 </wgt>
<wgt id='1510'> +2.9729654e+11 </wgt>
<wgt id='1511'> +3.0083560e+11 </wgt>
<wgt id='1512'> +2.9942317e+11 </wgt>
<wgt id='1513'> +2.9965467e+11 </wgt>
<wgt id='1514'> +2.9980146e+11 </wgt>
<wgt id='1515'> +3.0210296e+11 </wgt>
<wgt id='1516'> +3.0021732e+11 </wgt>
<wgt id='1517'> +2.9936418e+11 </wgt>
<wgt id='1518'> +3.0002760e+11 </wgt>
<wgt id='1519'> +2.9811750e+11 </wgt>
<wgt id='1520'> +3.0088197e+11 </wgt>
<wgt id='1521'> +2.9898075e+11 </wgt>
<wgt id='1522'> +3.0018505e+11 </wgt>
<wgt id='1523'> +3.0110677e+11 </wgt>
<wgt id='1524'> +3.0107601e+11 </wgt>
<wgt id='1525'> +3.0098831e+11 </wgt>
<wgt id='1526'> +3.0048895e+11 </wgt>
<wgt id='1527'> +2.9973238e+11 </wgt>
<wgt id='1528'> +2.9958131e+11 </wgt>
<wgt id='1529'> +2.9934929e+11 </wgt>
<wgt id='1530'> +2.9557866e+11 </wgt>
<wgt id='1531'> +2.9658524e+11 </wgt>
<wgt id='1532'> +2.9419569e+11 </wgt>
<wgt id='1533'> +2.9221526e+11 </wgt>
<wgt id='1534'> +2.9497264e+11 </wgt>
<wgt id='1535'> +2.9905757e+11 </wgt>
<wgt id='1536'> +2.9348929e+11 </wgt>
<wgt id='1537'> +2.9647305e+11 </wgt>
<wgt id='1538'> +2.9342077e+11 </wgt>
<wgt id='1539'> +3.0283909e+11 </wgt>
<wgt id='1540'> +2.9570319e+11 </wgt>
<wgt id='1541'> +2.9665616e+11 </wgt>
<wgt id='1542'> +2.9648304e+11 </wgt>
<wgt id='1543'> +2.9760268e+11 </wgt>
<wgt id='1544'> +2.9468502e+11 </wgt>
<wgt id='1545'> +2.9463153e+11 </wgt>
<wgt id='1546'> +2.9269166e+11 </wgt>
<wgt id='1547'> +2.9887598e+11 </wgt>
<wgt id='1548'> +2.9456833e+11 </wgt>
<wgt id='1549'> +2.9325907e+11 </wgt>
<wgt id='1550'> +2.9716549e+11 </wgt>
<wgt id='1551'> +2.9723544e+11 </wgt>
<wgt id='1552'> +2.9589123e+11 </wgt>
<wgt id='1553'> +2.9835721e+11 </wgt>
<wgt id='1554'> +2.9642351e+11 </wgt>
<wgt id='1555'> +2.9718014e+11 </wgt>
<wgt id='1556'> +2.9894169e+11 </wgt>
<wgt id='1557'> +2.9591183e+11 </wgt>
<wgt id='1558'> +2.9655535e+11 </wgt>
<wgt id='1559'> +2.9457582e+11 </wgt>
<wgt id='1560'> +2.9537442e+11 </wgt>
<wgt id='1561'> +2.9260330e+11 </wgt>
<wgt id='1562'> +2.9514098e+11 </wgt>
<wgt id='1563'> +2.9650026e+11 </wgt>
<wgt id='1564'> +2.9620757e+11 </wgt>
<wgt id='1565'> +2.9878534e+11 </wgt>
<wgt id='1566'> +2.9689836e+11 </wgt>
<wgt id='1567'> +3.0015723e+11 </wgt>
<wgt id='1568'> +2.9653045e+11 </wgt>
<wgt id='1569'> +2.9622355e+11 </wgt>
<wgt id='1570'> +2.9795757e+11 </wgt>
<wgt id='1571'> +2.9638293e+11 </wgt>
<wgt id='1572'> +2.9826546e+11 </wgt>
<wgt id='1573'> +2.9934128e+11 </wgt>
<wgt id='1574'> +2.6352448e+11 </wgt>
<wgt id='1575'> +2.6359637e+11 </wgt>
<wgt id='1576'> +2.6345691e+11 </wgt>
<wgt id='1577'> +2.6354267e+11 </wgt>
<wgt id='1578'> +2.6413175e+11 </wgt>
<wgt id='1579'> +2.6439164e+11 </wgt>
<wgt id='1580'> +2.6416368e+11 </wgt>
<wgt id='1581'> +2.6289605e+11 </wgt>
<wgt id='1582'> +2.6258828e+11 </wgt>
<wgt id='1583'> +2.6308962e+11 </wgt>
<wgt id='1584'> +2.6410033e+11 </wgt>
<wgt id='1585'> +2.6371152e+11 </wgt>
<wgt id='1586'> +2.6249768e+11 </wgt>
<wgt id='1587'> +2.6275500e+11 </wgt>
<wgt id='1588'> +2.6225132e+11 </wgt>
<wgt id='1589'> +2.6327722e+11 </wgt>
<wgt id='1590'> +2.6333515e+11 </wgt>
<wgt id='1591'> +2.6359167e+11 </wgt>
<wgt id='1592'> +2.6249334e+11 </wgt>
<wgt id='1593'> +2.6266559e+11 </wgt>
<wgt id='1594'> +2.6433092e+11 </wgt>
<wgt id='1595'> +2.6130506e+11 </wgt>
<wgt id='1596'> +2.6708222e+11 </wgt>
<wgt id='1597'> +2.6525133e+11 </wgt>
<wgt id='1598'> +2.6548070e+11 </wgt>
<wgt id='1599'> +2.6079463e+11 </wgt>
<wgt id='1600'> +2.6792970e+11 </wgt>
<wgt id='1601'> +2.6566558e+11 </wgt>
<wgt id='1602'> +2.6358176e+11 </wgt>
<wgt id='1603'> +2.7381732e+11 </wgt>
<wgt id='1604'> +2.6360791e+11 </wgt>
</rwgt>
</event>
<event>
 9      1 +2.8343000e+11 1.40000000e+03 7.81738600e-03 7.88881200e-02
       21 -1    0    0  504  503 +0.0000000000e+00 +0.0000000000e+00 +2.1728412637e+02 2.1728412637e+02 0.0000000000e+00 0.0000e+00 -1.0000e+00
       21 -1    0    0  503  504 -0.0000000000e+00 -0.0000000000e+00 -2.2551110520e+03 2.2551110520e+03 0.0000000000e+00 0.0000e+00 -1.0000e+00
       45  2    1    2    0    0 +0.0000000000e+00 +0.0000000000e+00 -2.0378269256e+03 2.4723951784e+03 1.3999997640e+03 0.0000e+00 0.0000e+00
       25  2    3    3    0    0 +6.2402045261e+01 +7.3439098402e+01 -2.2320594408e+03 2.2376332375e+03 1.2500336753e+02 0.0000e+00 0.0000e+00
       35  2    3    3    0    0 -6.2402045261e+01 -7.3439098402e+01 +1.9423251519e+02 2.3476194083e+02 8.9997680406e+01 0.0000e+00 0.0000e+00
        5  1    5    5  501    0 -3.3283162659e+01 +8.2983729385e+00 +1.0363076137e+02 1.0924158735e+02 4.2140000000e+00 0.0000e+00 -1.0000e+00
       -5  1    5    5    0  501 -2.9118882601e+01 -8.1737471341e+01 +9.0601753827e+01 1.2552035348e+02 4.2140000000e+00 0.0000e+00 -1.0000e+00
        5  1    4    4  502    0 +5.2572450084e+01 +5.4000593937e+01 -5.2194489984e+02 5.2737478411e+02 4.2140000000e+00 0.0000e+00 1.0000e+00
       -5  1    4    4    0  502 +9.8295951772e+00 +1.9438504466e+01 -1.7101145410e+03 1.7102584534e+03 4.2140000000e+00 0.0000e+00 1.0000e+00
<mgrwt>
<rscale>  0 0.13999998E+04</rscale>
<asrwt>0</asrwt>
<pdfrwt beam="1">  1       21 0.33428331E-01 0.13999998E+04</pdfrwt>
<pdfrwt beam="2">  1       21 0.34694012E+00 0.13999998E+04</pdfrwt>
<totfact> 0.87142672E+01</totfact>
</mgrwt>
<rwgt>
<wgt id='1001'> +2.8343000e+11 </wgt>
<wgt id='1002'> +4.1349895e+11 </wgt>
<wgt id='1003'> +4.1316062e+11 </wgt>
<wgt id='1004'> +4.8474477e+11 </wgt>
<wgt id='1005'> +2.8343000e+11 </wgt>
<wgt id='1006'> +2.8343000e+11 </wgt>
<wgt id='1007'> +4.1349895e+11 </wgt>
<wgt id='1008'> +4.1316062e+11 </wgt>
<wgt id='1009'> +4.8474477e+11 </wgt>
<wgt id='1010'> +2.8343000e+11 </wgt>
<wgt id='1011'> +2.8343000e+11 </wgt>
<wgt id='1012'> +4.1349895e+11 </wgt>
<wgt id='1013'> +4.1316062e+11 </wgt>
<wgt id='1014'> +4.8474477e+11 </wgt>
<wgt id='1015'> +2.8343000e+11 </wgt>
<wgt id='1016'> +2.5018812e+11 </wgt>
<wgt id='1017'> +3.5626970e+11 </wgt>
<wgt id='1018'> +3.5599761e+11 </wgt>
<wgt id='1019'> +4.1316062e+11 </wgt>
<wgt id='1020'> +2.5018812e+11 </wgt>
<wgt id='1021'> +2.5018812e+11 </wgt>
<wgt id='1022'> +3.5626970e+11 </wgt>
<wgt id='1023'> +3.5599761e+11 </wgt>
<wgt id='1024'> +4.1316062e+11 </wgt>
<wgt id='1025'> +2.5018812e+11 </wgt>
<wgt id='1026'> +2.5018812e+11 </wgt>
<wgt id='1027'> +3.5626970e+11 </wgt>
<wgt id='1028'> +3.5599761e+11 </wgt>
<wgt id='1029'> +4.1316062e+11 </wgt>
<wgt id='1030'> +2.5018812e+11 </wgt>
<wgt id='1031'> +3.2373535e+11 </wgt>
<wgt id='1032'> +4.8517105e+11 </wgt>
<wgt id='1033'> +4.8474477e+11 </wgt>
<wgt id='1034'> +5.7546067e+11 </wgt>
<wgt id='1035'> +3.2373535e+11 </wgt>
<wgt id='1036'> +3.2373535e+11 </wgt>
<wgt id='1037'> +4.8517105e+11 </wgt>
<wgt id='1038'> +4.8474477e+11 </wgt>
<wgt id='1039'> +5.7546067e+11 </wgt>
<wgt id='1040'> +3.2373535e+11 </wgt>
<wgt id='1041'> +3.2373535e+11 </wgt>
<wgt id='1042'> +4.8517105e+11 </wgt>
<wgt id='1043'> +4.8474477e+11 </wgt>
<wgt id='1044'> +5.7546067e+11 </wgt>
<wgt id='1045'> +3.2373535e+11 </wgt>
<wgt id='1046'> +2.8343000e+11 </wgt>
<wgt id='1047'> +2.8343000e+11 </wgt>
<wgt id='1048'> +2.8343000e+11 </wgt>
<wgt id='1049'> +2.8331264e+11 </wgt>
<wgt id='1050'> +2.8162042e+11 </wgt>
<wgt id='1051'> +2.8335487e+11 </wgt>
<wgt id='1052'> +2.8340913e+11 </wgt>
<wgt id='1053'> +2.8198168e+11 </wgt>
<wgt id='1054'> +2.8664634e+11 </wgt>
<wgt id='1055'> +2.8190585e+11 </wgt>
<wgt id='1056'> +2.8125979e+11 </wgt>
<wgt id='1057'> +2.8311001e+11 </wgt>
<wgt id='1058'> +2.8429657e+11 </wgt>
<wgt id='1059'> +2.8534447e+11 </wgt>
<wgt id='1060'> +2.8225756e+11 </wgt>
<wgt id='1061'> +2.8480370e+11 </wgt>
<wgt id='1062'> +2.8610248e+11 </wgt>
<wgt id='1063'> +2.8445423e+11 </wgt>
<wgt id='1064'> +2.8622275e+11 </wgt>
<wgt id='1065'> +2.8529493e+11 </wgt>
<wgt id='1066'> +2.8298559e+11 </wgt>
<wgt id='1067'> +2.8243837e+11 </wgt>
<wgt id='1068'> +2.8468160e+11 </wgt>
<wgt id='1069'> +2.8200713e+11 </wgt>
<wgt id='1070'> +2.8085915e+11 </wgt>
<wgt id='1071'> +2.8641105e+11 </wgt>
<wgt id='1072'> +2.7773863e+11 </wgt>
<wgt id='1073'> +2.8513809e+11 </wgt>
<wgt id='1074'> +2.8448934e+11 </wgt>
<wgt id='1075'> +2.8061292e+11 </wgt>
<wgt id='1076'> +2.8526887e+11 </wgt>
<wgt id='1077'> +2.7964141e+11 </wgt>
<wgt id='1078'> +2.7853283e+11 </wgt>
<wgt id='1079'> +2.8415853e+11 </wgt>
<wgt id='1080'> +2.8500452e+11 </wgt>
<wgt id='1081'> +2.8347362e+11 </wgt>
<wgt id='1082'> +2.8237636e+11 </wgt>
<wgt id='1083'> +2.8343617e+11 </wgt>
<wgt id='1084'> +2.8460923e+11 </wgt>
<wgt id='1085'> +2.8213771e+11 </wgt>
<wgt id='1086'> +2.8598121e+11 </wgt>
<wgt id='1087'> +2.8474063e+11 </wgt>
<wgt id='1088'> +2.8335650e+11 </wgt>
<wgt id='1089'> +2.8259489e+11 </wgt>
<wgt id='1090'> +2.8452879e+11 </wgt>
<wgt id='1091'> +2.8381016e+11 </wgt>
<wgt id='1092'> +2.8307205e+11 </wgt>
<wgt id='1093'> +2.8267884e+11 </wgt>
<wgt id='1094'> +2.8096311e+11 </wgt>
<wgt id='1095'> +2.8374849e+11 </wgt>
<wgt id='1096'> +2.8411546e+11 </wgt>
<wgt id='1097'> +2.8272943e+11 </wgt>
<wgt id='1098'> +2.8374863e+11 </wgt>
<wgt id='1099'> +2.8404910e+11 </wgt>
<wgt id='1100'> +2.8352179e+11 </wgt>
<wgt id='1101'> +2.8368933e+11 </wgt>
<wgt id='1102'> +2.8331134e+11 </wgt>
<wgt id='1103'> +2.8094523e+11 </wgt>
<wgt id='1104'> +2.8395910e+11 </wgt>
<wgt id='1105'> +2.8384907e+11 </wgt>
<wgt id='1106'> +2.8405312e+11 </wgt>
<wgt id='1107'> +2.8434272e+11 </wgt>
<wgt id='1108'> +2.8314799e+11 </wgt>
<wgt id='1109'> +2.8392809e+11 </wgt>
<wgt id='1110'> +2.8322835e+11 </wgt>
<wgt id='1111'> +2.8515845e+11 </wgt>
<wgt id='1112'> +2.8276429e+11 </wgt>
<wgt id='1113'> +2.8362592e+11 </wgt>
<wgt id='1114'> +2.8310450e+11 </wgt>
<wgt id='1115'> +2.8146932e+11 </wgt>
<wgt id='1116'> +2.8498663e+11 </wgt>
<wgt id='1117'> +2.8308435e+11 </wgt>
<wgt id='1118'> +2.8474781e+11 </wgt>
<wgt id='1119'> +2.8219193e+11 </wgt>
<wgt id='1120'> +2.8168284e+11 </wgt>
<wgt id='1121'> +2.8307130e+11 </wgt>
<wgt id='1122'> +2.8229269e+11 </wgt>
<wgt id='1123'> +2.8342940e+11 </wgt>
<wgt id='1124'> +2.8410103e+11 </wgt>
<wgt id='1125'> +2.8357123e+11 </wgt>
<wgt id='1126'> +2.8365269e+11 </wgt>
<wgt id='1127'> +2.8349986e+11 </wgt>
<wgt id='1128'> +2.8316442e+11 </wgt>
<wgt id='1129'> +2.8278803e+11 </wgt>
<wgt id='1130'> +2.8343933e+11 </wgt>
<wgt id='1131'> +2.8500435e+11 </wgt>
<wgt id='1132'> +2.8301519e+11 </wgt>
<wgt id='1133'> +2.8377476e+11 </wgt>
<wgt id='1134'> +2.8339763e+11 </wgt>
<wgt id='1135'> +2.8360699e+11 </wgt>
<wgt id='1136'> +2.8296069e+11 </wgt>
<wgt id='1137'> +2.8281023e+11 </wgt>
<wgt id='1138'> +2.8362553e+11 </wgt>
<wgt id='1139'> +2.8390191e+11 </wgt>
<wgt id='1140'> +2.8401187e+11 </wgt>
<wgt id='1141'> +2.8282218e+11 </wgt>
<wgt id='1142'> +2.8347849e+11 </wgt>
<wgt id='1143'> +2.8398607e+11 </wgt>
<wgt id='1144'> +2.8337518e+11 </wgt>
<wgt id='1145'> +2.8379449e+11 </wgt>
<wgt id='1146'> +2.8381672e+11 </wgt>
<wgt id='1147'> +2.8359722e+11 </wgt>
<wgt id='1148'> +2.8343000e+11 </wgt>
<wgt id='1149'> +2.8343000e+11 </wgt>
<wgt id='1150'> +2.7813447e+11 </wgt>
<wgt id='1151'> +2.8247024e+11 </wgt>
<wgt id='1152'> +2.9258373e+11 </wgt>
<wgt id='1153'> +2.8774980e+11 </wgt>
<wgt id='1154'> +2.6296954e+11 </wgt>
<wgt id='1155'> +3.0335019e+11 </wgt>
<wgt id='1156'> +2.8831494e+11 </wgt>
<wgt id='1157'> +2.8465564e+11 </wgt>
<wgt id='1158'> +2.9253107e+11 </wgt>
<wgt id='1159'> +2.9428562e+11 </wgt>
<wgt id='1160'> +2.5475481e+11 </wgt>
<wgt id='1161'> +2.9976656e+11 </wgt>
<wgt id='1162'> +2.7403978e+11 </wgt>
<wgt id='1163'> +2.8407694e+11 </wgt>
<wgt id='1164'> +2.5426630e+11 </wgt>
<wgt id='1165'> +2.8260022e+11 </wgt>
<wgt id='1166'> +2.7899901e+11 </wgt>
<wgt id='1167'> +2.7866812e+11 </wgt>
<wgt id='1168'> +2.5741770e+11 </wgt>
<wgt id='1169'> +2.6014068e+11 </wgt>
<wgt id='1170'> +2.8341127e+11 </wgt>
<wgt id='1171'> +2.6779482e+11 </wgt>
<wgt id='1172'> +2.5970664e+11 </wgt>
<wgt id='1173'> +2.8867345e+11 </wgt>
<wgt id='1174'> +2.8652205e+11 </wgt>
<wgt id='1175'> +2.8335539e+11 </wgt>
<wgt id='1176'> +2.9266825e+11 </wgt>
<wgt id='1177'> +3.0230915e+11 </wgt>
<wgt id='1178'> +2.7832126e+11 </wgt>
<wgt id='1179'> +3.0023883e+11 </wgt>
<wgt id='1180'> +3.0007084e+11 </wgt>
<wgt id='1181'> +2.6153414e+11 </wgt>
<wgt id='1182'> +2.7368425e+11 </wgt>
<wgt id='1183'> +2.9709534e+11 </wgt>
<wgt id='1184'> +2.7657179e+11 </wgt>
<wgt id='1185'> +2.8728954e+11 </wgt>
<wgt id='1186'> +2.6965661e+11 </wgt>
<wgt id='1187'> +3.0796769e+11 </wgt>
<wgt id='1188'> +3.0099338e+11 </wgt>
<wgt id='1189'> +3.0376181e+11 </wgt>
<wgt id='1190'> +2.9427160e+11 </wgt>
<wgt id='1191'> +3.1534209e+11 </wgt>
<wgt id='1192'> +2.8802223e+11 </wgt>
<wgt id='1193'> +2.9065706e+11 </wgt>
<wgt id='1194'> +2.6806741e+11 </wgt>
<wgt id='1195'> +2.9023946e+11 </wgt>
<wgt id='1196'> +2.6830604e+11 </wgt>
<wgt id='1197'> +2.8906237e+11 </wgt>
<wgt id='1198'> +2.6965267e+11 </wgt>
<wgt id='1199'> +2.9933856e+11 </wgt>
<wgt id='1200'> +2.7247402e+11 </wgt>
<wgt id='1201'> +3.0268639e+11 </wgt>
<wgt id='1202'> +2.7499143e+11 </wgt>
<wgt id='1203'> +2.8605203e+11 </wgt>
<wgt id='1204'> +2.6263712e+11 </wgt>
<wgt id='1205'> +2.9937418e+11 </wgt>
<wgt id='1206'> +2.6987435e+11 </wgt>
<wgt id='1207'> +3.0452554e+11 </wgt>
<wgt id='1208'> +2.9029436e+11 </wgt>
<wgt id='1209'> +2.6988888e+11 </wgt>
<wgt id='1210'> +2.9156132e+11 </wgt>
<wgt id='1211'> +2.9524569e+11 </wgt>
<wgt id='1212'> +2.6089014e+11 </wgt>
<wgt id='1213'> +2.7473610e+11 </wgt>
<wgt id='1214'> +2.7660669e+11 </wgt>
<wgt id='1215'> +3.0272844e+11 </wgt>
<wgt id='1216'> +2.7851873e+11 </wgt>
<wgt id='1217'> +2.8197951e+11 </wgt>
<wgt id='1218'> +2.6913610e+11 </wgt>
<wgt id='1219'> +2.7889791e+11 </wgt>
<wgt id='1220'> +2.6815688e+11 </wgt>
<wgt id='1221'> +2.5786223e+11 </wgt>
<wgt id='1222'> +2.7326946e+11 </wgt>
<wgt id='1223'> +2.7805119e+11 </wgt>
<wgt id='1224'> +2.7949293e+11 </wgt>
<wgt id='1225'> +2.7426500e+11 </wgt>
<wgt id='1226'> +2.8048774e+11 </wgt>
<wgt id='1227'> +2.5816014e+11 </wgt>
<wgt id='1228'> +2.5878856e+11 </wgt>
<wgt id='1229'> +2.9113354e+11 </wgt>
<wgt id='1230'> +2.8471214e+11 </wgt>
<wgt id='1231'> +2.8260022e+11 </wgt>
<wgt id='1232'> +2.8847545e+11 </wgt>
<wgt id='1233'> +2.8345851e+11 </wgt>
<wgt id='1234'> +2.9620731e+11 </wgt>
<wgt id='1235'> +3.0826902e+11 </wgt>
<wgt id='1236'> +2.9929415e+11 </wgt>
<wgt id='1237'> +2.9660674e+11 </wgt>
<wgt id='1238'> +3.2369717e+11 </wgt>
<wgt id='1239'> +3.0008810e+11 </wgt>
<wgt id='1240'> +2.9663271e+11 </wgt>
<wgt id='1241'> +2.7345764e+11 </wgt>
<wgt id='1242'> +2.8624629e+11 </wgt>
<wgt id='1243'> +2.6772881e+11 </wgt>
<wgt id='1244'> +2.8806083e+11 </wgt>
<wgt id='1245'> +2.8879638e+11 </wgt>
<wgt id='1246'> +3.0445767e+11 </wgt>
<wgt id='1247'> +2.7306950e+11 </wgt>
<wgt id='1248'> +2.7603554e+11 </wgt>
<wgt id='1249'> +2.7727587e+11 </wgt>
<wgt id='1250'> +2.9887181e+11 </wgt>
<wgt id='1251'> +3.1422973e+11 </wgt>
<wgt id='1252'> +2.8294222e+11 </wgt>
<wgt id='1253'> +3.2537504e+11 </wgt>
<wgt id='1254'> +2.9240664e+11 </wgt>
<wgt id='1255'> +3.2070596e+11 </wgt>
<wgt id='1256'> +3.1916444e+11 </wgt>
<wgt id='1257'> +2.7083847e+11 </wgt>
<wgt id='1258'> +3.0118150e+11 </wgt>
<wgt id='1259'> +3.3994058e+11 </wgt>
<wgt id='1260'> +3.7404489e+11 </wgt>
<wgt id='1261'> +3.6622630e+11 </wgt>
<wgt id='1262'> +3.1071525e+11 </wgt>
<wgt id='1263'> +3.1848649e+11 </wgt>
<wgt id='1264'> +3.0214673e+11 </wgt>
<wgt id='1265'> +2.7566761e+11 </wgt>
<wgt id='1266'> +2.9964996e+11 </wgt>
<wgt id='1267'> +4.3559696e+11 </wgt>
<wgt id='1268'> +2.7517136e+11 </wgt>
<wgt id='1269'> +2.6612809e+11 </wgt>
<wgt id='1270'> +3.3792962e+11 </wgt>
<wgt id='1271'> +2.2034969e+11 </wgt>
<wgt id='1272'> +3.0259686e+11 </wgt>
<wgt id='1273'> +2.9528888e+11 </wgt>
<wgt id='1274'> +3.0018243e+11 </wgt>
<wgt id='1275'> +2.8749062e+11 </wgt>
<wgt id='1276'> +3.2727357e+11 </wgt>
<wgt id='1277'> +3.4584681e+11 </wgt>
<wgt id='1278'> +3.2251790e+11 </wgt>
<wgt id='1279'> +2.6761345e+11 </wgt>
<wgt id='1280'> +3.3297201e+11 </wgt>
<wgt id='1281'> +2.7952634e+11 </wgt>
<wgt id='1282'> +2.8676790e+11 </wgt>
<wgt id='1283'> +3.4316618e+11 </wgt>
<wgt id='1284'> +2.8449365e+11 </wgt>
<wgt id='1285'> +2.7182492e+11 </wgt>
<wgt id='1286'> +3.8973905e+11 </wgt>
<wgt id='1287'> +3.9898148e+11 </wgt>
<wgt id='1288'> +4.2453637e+11 </wgt>
<wgt id='1289'> +3.4538291e+11 </wgt>
<wgt id='1290'> +3.2228296e+11 </wgt>
<wgt id='1291'> +2.8783344e+11 </wgt>
<wgt id='1292'> +3.1812649e+11 </wgt>
<wgt id='1293'> +3.0256034e+11 </wgt>
<wgt id='1294'> +4.0404469e+11 </wgt>
<wgt id='1295'> +3.2452698e+11 </wgt>
<wgt id='1296'> +4.0260036e+11 </wgt>
<wgt id='1297'> +2.6989573e+11 </wgt>
<wgt id='1298'> +2.9317068e+11 </wgt>
<wgt id='1299'> +3.0843166e+11 </wgt>
<wgt id='1300'> +2.4029096e+11 </wgt>
<wgt id='1301'> +2.5426408e+11 </wgt>
<wgt id='1302'> +2.6172592e+11 </wgt>
<wgt id='1303'> +3.1066388e+11 </wgt>
<wgt id='1304'> +3.8073930e+11 </wgt>
<wgt id='1305'> +2.9129111e+11 </wgt>
<wgt id='1306'> +3.0394633e+11 </wgt>
<wgt id='1307'> +2.6555883e+11 </wgt>
<wgt id='1308'> +3.5180034e+11 </wgt>
<wgt id='1309'> +3.2365734e+11 </wgt>
<wgt id='1310'> +3.0828792e+11 </wgt>
<wgt id='1311'> +2.8221800e+11 </wgt>
<wgt id='1312'> +3.7746676e+11 </wgt>
<wgt id='1313'> +3.4030178e+11 </wgt>
<wgt id='1314'> +2.5812595e+11 </wgt>
<wgt id='1315'> +2.6654354e+11 </wgt>
<wgt id='1316'> +2.9881179e+11 </wgt>
<wgt id='1317'> +3.8454496e+11 </wgt>
<wgt id='1318'> +2.8555363e+11 </wgt>
<wgt id='1319'> +3.0118322e+11 </wgt>
<wgt id='1320'> +3.3635917e+11 </wgt>
<wgt id='1321'> +3.2747118e+11 </wgt>
<wgt id='1322'> +3.2559774e+11 </wgt>
<wgt id='1323'> +2.5099355e+11 </wgt>
<wgt id='1324'> +3.3586971e+11 </wgt>
<wgt id='1325'> +3.2416443e+11 </wgt>
<wgt id='1326'> +3.4054597e+11 </wgt>
<wgt id='1327'> +3.4416350e+11 </wgt>
<wgt id='1328'> +3.3592508e+11 </wgt>
<wgt id='1329'> +2.7690333e+11 </wgt>
<wgt id='1330'> +2.6538306e+11 </wgt>
<wgt id='1331'> +3.3812077e+11 </wgt>
<wgt id='1332'> +3.3275964e+11 </wgt>
<wgt id='1333'> +3.0632624e+11 </wgt>
<wgt id='1334'> +3.6078866e+11 </wgt>
<wgt id='1335'> +2.5552085e+11 </wgt>
<wgt id='1336'> +3.8309627e+11 </wgt>
<wgt id='1337'> +3.1655024e+11 </wgt>
<wgt id='1338'> +2.7163573e+11 </wgt>
<wgt id='1339'> +2.8105285e+11 </wgt>
<wgt id='1340'> +3.6424720e+11 </wgt>
<wgt id='1341'> +4.2336299e+11 </wgt>
<wgt id='1342'> +2.7191012e+11 </wgt>
<wgt id='1343'> +3.1969025e+11 </wgt>
<wgt id='1344'> +3.4600175e+11 </wgt>
<wgt id='1345'> +2.0166962e+11 </wgt>
<wgt id='1346'> +3.0320972e+11 </wgt>
<wgt id='1347'> +3.0957292e+11 </wgt>
<wgt id='1348'> +2.6686299e+11 </wgt>
<wgt id='1349'> +2.8343135e+11 </wgt>
<wgt id='1350'> +3.7961775e+11 </wgt>
<wgt id='1351'> +2.8603449e+11 </wgt>
<wgt id='1352'> +3.1746512e+11 </wgt>
<wgt id='1353'> +3.2388023e+11 </wgt>
<wgt id='1354'> +3.2220359e+11 </wgt>
<wgt id='1355'> +2.8094892e+11 </wgt>
<wgt id='1356'> +2.8675033e+11 </wgt>
<wgt id='1357'> +2.8540748e+11 </wgt>
<wgt id='1358'> +2.7314077e+11 </wgt>
<wgt id='1359'> +2.8021524e+11 </wgt>
<wgt id='1360'> +2.7150678e+11 </wgt>
<wgt id='1361'> +2.8115786e+11 </wgt>
<wgt id='1362'> +2.8766351e+11 </wgt>
<wgt id='1363'> +2.7337608e+11 </wgt>
<wgt id='1364'> +3.0827434e+11 </wgt>
<wgt id='1365'> +2.7572500e+11 </wgt>
<wgt id='1366'> +2.8454513e+11 </wgt>
<wgt id='1367'> +2.7239650e+11 </wgt>
<wgt id='1368'> +2.9549751e+11 </wgt>
<wgt id='1369'> +2.8294013e+11 </wgt>
<wgt id='1370'> +2.6625832e+11 </wgt>
<wgt id='1371'> +2.6759377e+11 </wgt>
<wgt id='1372'> +2.6969846e+11 </wgt>
<wgt id='1373'> +2.9810042e+11 </wgt>
<wgt id='1374'> +2.7936574e+11 </wgt>
<wgt id='1375'> +2.8370283e+11 </wgt>
<wgt id='1376'> +2.8558003e+11 </wgt>
<wgt id='1377'> +2.7941239e+11 </wgt>
<wgt id='1378'> +2.8664429e+11 </wgt>
<wgt id='1379'> +2.7403148e+11 </wgt>
<wgt id='1380'> +2.7550228e+11 </wgt>
<wgt id='1381'> +2.8648977e+11 </wgt>
<wgt id='1382'> +2.6955005e+11 </wgt>
<wgt id='1383'> +2.7717213e+11 </wgt>
<wgt id='1384'> +2.6449119e+11 </wgt>
<wgt id='1385'> +2.7791303e+11 </wgt>
<wgt id='1386'> +2.7875984e+11 </wgt>
<wgt id='1387'> +2.8848491e+11 </wgt>
<wgt id='1388'> +2.8268502e+11 </wgt>
<wgt id='1389'> +2.6990643e+11 </wgt>
<wgt id='1390'> +2.8287400e+11 </wgt>
<wgt id='1391'> +2.9720216e+11 </wgt>
<wgt id='1392'> +2.6560452e+11 </wgt>
<wgt id='1393'> +2.8829136e+11 </wgt>
<wgt id='1394'> +2.9028991e+11 </wgt>
<wgt id='1395'> +2.6231567e+11 </wgt>
<wgt id='1396'> +2.7868349e+11 </wgt>
<wgt id='1397'> +2.7755797e+11 </wgt>
<wgt id='1398'> +3.0182740e+11 </wgt>
<wgt id='1399'> +2.7041022e+11 </wgt>
<wgt id='1400'> +2.7583279e+11 </wgt>
<wgt id='1401'> +2.6784910e+11 </wgt>
<wgt id='1402'> +2.8378569e+11 </wgt>
<wgt id='1403'> +2.9478325e+11 </wgt>
<wgt id='1404'> +2.8053270e+11 </wgt>
<wgt id='1405'> +3.0527183e+11 </wgt>
<wgt id='1406'> +2.9146669e+11 </wgt>
<wgt id='1407'> +3.0122768e+11 </wgt>
<wgt id='1408'> +3.0246239e+11 </wgt>
<wgt id='1409'> +2.7473479e+11 </wgt>
<wgt id='1410'> +2.8327031e+11 </wgt>
<wgt id='1411'> +2.7965520e+11 </wgt>
<wgt id='1412'> +3.0113966e+11 </wgt>
<wgt id='1413'> +2.9036463e+11 </wgt>
<wgt id='1414'> +2.8758628e+11 </wgt>
<wgt id='1415'> +2.7122055e+11 </wgt>
<wgt id='1416'> +2.8073004e+11 </wgt>
<wgt id='1417'> +2.6605702e+11 </wgt>
<wgt id='1418'> +2.7624370e+11 </wgt>
<wgt id='1419'> +2.8196509e+11 </wgt>
<wgt id='1420'> +2.5936531e+11 </wgt>
<wgt id='1421'> +2.9632616e+11 </wgt>
<wgt id='1422'> +2.6201495e+11 </wgt>
<wgt id='1423'> +2.7954650e+11 </wgt>
<wgt id='1424'> +2.7173412e+11 </wgt>
<wgt id='1425'> +2.7739738e+11 </wgt>
<wgt id='1426'> +2.9139786e+11 </wgt>
<wgt id='1427'> +2.7226720e+11 </wgt>
<wgt id='1428'> +2.6932350e+11 </wgt>
<wgt id='1429'> +2.7740217e+11 </wgt>
<wgt id='1430'> +2.7195696e+11 </wgt>
<wgt id='1431'> +2.8607347e+11 </wgt>
<wgt id='1432'> +2.6859821e+11 </wgt>
<wgt id='1433'> +2.7104501e+11 </wgt>
<wgt id='1434'> +2.7100489e+11 </wgt>
<wgt id='1435'> +2.8987833e+11 </wgt>
<wgt id='1436'> +2.7930784e+11 </wgt>
<wgt id='1437'> +2.8269583e+11 </wgt>
<wgt id='1438'> +2.7725511e+11 </wgt>
<wgt id='1439'> +2.8737805e+11 </wgt>
<wgt id='1440'> +2.8272647e+11 </wgt>
<wgt id='1441'> +2.7852566e+11 </wgt>
<wgt id='1442'> +2.8150025e+11 </wgt>
<wgt id='1443'> +2.6708062e+11 </wgt>
<wgt id='1444'> +2.9233943e+11 </wgt>
<wgt id='1445'> +2.7187660e+11 </wgt>
<wgt id='1446'> +3.0223645e+11 </wgt>
<wgt id='1447'> +2.9509844e+11 </wgt>
<wgt id='1448'> +2.8596361e+11 </wgt>
<wgt id='1449'> +2.7859518e+11 </wgt>
<wgt id='1450'> +2.7308480e+11 </wgt>
<wgt id='1451'> +2.6882510e+11 </wgt>
<wgt id='1452'> +2.9060220e+11 </wgt>
<wgt id='1453'> +2.9936926e+11 </wgt>
<wgt id='1454'> +2.7052190e+11 </wgt>
<wgt id='1455'> +2.8351254e+11 </wgt>
<wgt id='1456'> +2.7507980e+11 </wgt>
<wgt id='1457'> +2.8628242e+11 </wgt>
<wgt id='1458'> +2.9347395e+11 </wgt>
<wgt id='1459'> +3.0905135e+11 </wgt>
<wgt id='1460'> +3.0270640e+11 </wgt>
<wgt id='1461'> +3.7959313e+11 </wgt>
<wgt id='1462'> +3.2486062e+11 </wgt>
<wgt id='1463'> +3.2507595e+11 </wgt>
<wgt id='1464'> +3.2458443e+11 </wgt>
<wgt id='1465'> +3.2494520e+11 </wgt>
<wgt id='1466'> +3.2478337e+11 </wgt>
<wgt id='1467'> +3.2492830e+11 </wgt>
<wgt id='1468'> +3.2474956e+11 </wgt>
<wgt id='1469'> +3.2438275e+11 </wgt>
<wgt id='1470'> +3.2524866e+11 </wgt>
<wgt id='1471'> +3.2532416e+11 </wgt>
<wgt id='1472'> +3.2438314e+11 </wgt>
<wgt id='1473'> +3.2624637e+11 </wgt>
<wgt id='1474'> +3.2352937e+11 </wgt>
<wgt id='1475'> +3.2609550e+11 </wgt>
<wgt id='1476'> +3.2398581e+11 </wgt>
<wgt id='1477'> +3.2425697e+11 </wgt>
<wgt id='1478'> +3.2627142e+11 </wgt>
<wgt id='1479'> +3.2458701e+11 </wgt>
<wgt id='1480'> +3.2506051e+11 </wgt>
<wgt id='1481'> +3.2380055e+11 </wgt>
<wgt id='1482'> +3.2630321e+11 </wgt>
<wgt id='1483'> +3.2484753e+11 </wgt>
<wgt id='1484'> +3.2489148e+11 </wgt>
<wgt id='1485'> +3.2499138e+11 </wgt>
<wgt id='1486'> +3.2454397e+11 </wgt>
<wgt id='1487'> +3.2500585e+11 </wgt>
<wgt id='1488'> +3.2465852e+11 </wgt>
<wgt id='1489'> +3.2442497e+11 </wgt>
<wgt id='1490'> +3.2604276e+11 </wgt>
<wgt id='1491'> +3.3105261e+11 </wgt>
<wgt id='1492'> +3.2140989e+11 </wgt>
<wgt id='1493'> +3.2059559e+11 </wgt>
<wgt id='1494'> +3.3821918e+11 </wgt>
<wgt id='1495'> +3.2344895e+11 </wgt>
<wgt id='1496'> +3.2638076e+11 </wgt>
<wgt id='1497'> +3.2522114e+11 </wgt>
<wgt id='1498'> +3.2437124e+11 </wgt>
<wgt id='1499'> +3.2800047e+11 </wgt>
<wgt id='1500'> +3.2315460e+11 </wgt>
<wgt id='1501'> +3.2449489e+11 </wgt>
<wgt id='1502'> +3.2590072e+11 </wgt>
<wgt id='1503'> +3.1508085e+11 </wgt>
<wgt id='1504'> +3.3654370e+11 </wgt>
<wgt id='1505'> +3.2450866e+11 </wgt>
<wgt id='1506'> +3.2524365e+11 </wgt>
<wgt id='1507'> +3.3462426e+11 </wgt>
<wgt id='1508'> +3.0575086e+11 </wgt>
<wgt id='1509'> +3.2634049e+11 </wgt>
<wgt id='1510'> +3.1842356e+11 </wgt>
<wgt id='1511'> +3.2553721e+11 </wgt>
<wgt id='1512'> +3.2573220e+11 </wgt>
<wgt id='1513'> +3.2416384e+11 </wgt>
<wgt id='1514'> +3.2562596e+11 </wgt>
<wgt id='1515'> +3.3546378e+11 </wgt>
<wgt id='1516'> +3.1983516e+11 </wgt>
<wgt id='1517'> +3.2342754e+11 </wgt>
<wgt id='1518'> +3.2770380e+11 </wgt>
<wgt id='1519'> +3.2184513e+11 </wgt>
<wgt id='1520'> +3.2698665e+11 </wgt>
<wgt id='1521'> +3.2226615e+11 </wgt>
<wgt id='1522'> +3.2625617e+11 </wgt>
<wgt id='1523'> +3.2739636e+11 </wgt>
<wgt id='1524'> +3.2634636e+11 </wgt>
<wgt id='1525'> +3.2500834e+11 </wgt>
<wgt id='1526'> +3.2767902e+11 </wgt>
<wgt id='1527'> +3.2486062e+11 </wgt>
<wgt id='1528'> +3.1918654e+11 </wgt>
<wgt id='1529'> +3.3087861e+11 </wgt>
<wgt id='1530'> +3.0521754e+11 </wgt>
<wgt id='1531'> +3.4312082e+11 </wgt>
<wgt id='1532'> +3.5083393e+11 </wgt>
<wgt id='1533'> +3.3696304e+11 </wgt>
<wgt id='1534'> +3.3941002e+11 </wgt>
<wgt id='1535'> +3.4792913e+11 </wgt>
<wgt id='1536'> +3.3360569e+11 </wgt>
<wgt id='1537'> +3.5286946e+11 </wgt>
<wgt id='1538'> +3.3742350e+11 </wgt>
<wgt id='1539'> +3.5065975e+11 </wgt>
<wgt id='1540'> +3.5053265e+11 </wgt>
<wgt id='1541'> +3.4708670e+11 </wgt>
<wgt id='1542'> +3.4573118e+11 </wgt>
<wgt id='1543'> +3.4866885e+11 </wgt>
<wgt id='1544'> +3.3960566e+11 </wgt>
<wgt id='1545'> +3.4135560e+11 </wgt>
<wgt id='1546'> +3.3999478e+11 </wgt>
<wgt id='1547'> +3.4523537e+11 </wgt>
<wgt id='1548'> +3.4375709e+11 </wgt>
<wgt id='1549'> +3.3982915e+11 </wgt>
<wgt id='1550'> +3.4721830e+11 </wgt>
<wgt id='1551'> +3.4486197e+11 </wgt>
<wgt id='1552'> +3.4428981e+11 </wgt>
<wgt id='1553'> +3.5699307e+11 </wgt>
<wgt id='1554'> +3.4486861e+11 </wgt>
<wgt id='1555'> +3.4305430e+11 </wgt>
<wgt id='1556'> +3.4643451e+11 </wgt>
<wgt id='1557'> +3.4356884e+11 </wgt>
<wgt id='1558'> +3.4275800e+11 </wgt>
<wgt id='1559'> +3.4252271e+11 </wgt>
<wgt id='1560'> +3.4474903e+11 </wgt>
<wgt id='1561'> +3.4229722e+11 </wgt>
<wgt id='1562'> +3.3717100e+11 </wgt>
<wgt id='1563'> +3.4378939e+11 </wgt>
<wgt id='1564'> +3.4257167e+11 </wgt>
<wgt id='1565'> +3.5031435e+11 </wgt>
<wgt id='1566'> +3.4293519e+11 </wgt>
<wgt id='1567'> +3.3830402e+11 </wgt>
<wgt id='1568'> +3.4280103e+11 </wgt>
<wgt id='1569'> +3.4275598e+11 </wgt>
<wgt id='1570'> +3.5127629e+11 </wgt>
<wgt id='1571'> +3.4166962e+11 </wgt>
<wgt id='1572'> +3.4034237e+11 </wgt>
<wgt id='1573'> +3.5365555e+11 </wgt>
<wgt id='1574'> +2.2703965e+11 </wgt>
<wgt id='1575'> +2.2709402e+11 </wgt>
<wgt id='1576'> +2.2696971e+11 </wgt>
<wgt id='1577'> +2.2705623e+11 </wgt>
<wgt id='1578'> +2.2756152e+11 </wgt>
<wgt id='1579'> +2.2768814e+11 </wgt>
<wgt id='1580'> +2.2744884e+11 </wgt>
<wgt id='1581'> +2.2688630e+11 </wgt>
<wgt id='1582'> +2.2668475e+11 </wgt>
<wgt id='1583'> +2.2650747e+11 </wgt>
<wgt id='1584'> +2.2758711e+11 </wgt>
<wgt id='1585'> +2.2749563e+11 </wgt>
<wgt id='1586'> +2.2666483e+11 </wgt>
<wgt id='1587'> +2.2664904e+11 </wgt>
<wgt id='1588'> +2.2630942e+11 </wgt>
<wgt id='1589'> +2.2656647e+11 </wgt>
<wgt id='1590'> +2.2687070e+11 </wgt>
<wgt id='1591'> +2.2710907e+11 </wgt>
<wgt id='1592'> +2.2624534e+11 </wgt>
<wgt id='1593'> +2.2571088e+11 </wgt>
<wgt id='1594'> +2.2844558e+11 </wgt>
<wgt id='1595'> +2.2424036e+11 </wgt>
<wgt id='1596'> +2.3199836e+11 </wgt>
<wgt id='1597'> +2.2874687e+11 </wgt>
<wgt id='1598'> +2.2865781e+11 </wgt>
<wgt id='1599'> +2.2381814e+11 </wgt>
<wgt id='1600'> +2.3232831e+11 </wgt>
<wgt id='1601'> +2.2912362e+11 </wgt>
<wgt id='1602'> +2.2747282e+11 </wgt>
<wgt id='1603'> +2.4572368e+11 </wgt>
<wgt id='1604'> +2.2665206e+11 </wgt>
</rwgt>
</event>
<event>
 9      1 +2.8343000e+11 1.40000000e+03 7.81738600e-03 7.88881200e-02
       21 -1    0    0  504  503 +0.0000000000e+00 +0.0000000000e+00 +9.0824676757e+02 9.0824676757e+02 0.0000000000e+00 0.0000e+00 -1.0000e+00
       21 -1    0    0  503  504 -0.0000000000e+00 -0.0000000000e+00 -5.3950083034e+02 5.3950083034e+02 0.0000000000e+00 0.0000e+00 -1.0000e+00
       45  2    1    2    0    0 +0.0000000000e+00 +0.0000000000e+00 +3.6874593723e+02 1.4477475979e+03 1.3999998361e+03 0.0000e+00 0.0000e+00
       25  2    3    3    0    0 -6.7551582095e+02 +1.3841434096e+02 +2.3845842830e+02 7.4024857103e+02 1.2500148296e+02 0.0000e+00 0.0000e+00
       35  2    3    3    0    0 +6.7551582095e+02 -1.3841434096e+02 +1.3028750893e+02 7.0749902687e+02 8.9999355013e+01 0.0000e+00 0.0000e+00
        5  1    5    5  501    0 +5.0362902687e+02 -9.7788369026e+01 +5.6927255435e+01 5.1620076717e+02 4.2140000000e+00 0.0000e+00 -1.0000e+00
       -5  1    5    5    0  501 +1.7188679409e+02 -4.0625971931e+01 +7.3360253495e+01 1.9129825970e+02 4.2140000000e+00 0.0000e+00 -1.0000e+00
        5  1    4    4  502    0 -6.2439046636e+02 +1.0573823746e+02 +2.4509031607e+02 6.7906630764e+02 4.2140000000e+00 0.0000e+00 -1.0000e+00
       -5  1    4    4    0  502 -5.1125354590e+01 +3.2676103496e+01 -6.6318877717e+00 6.1182263387e+01 4.2140000000e+00 0.0000e+00 -1.0000e+00
<mgrwt>
<rscale>  0 0.13999998E+04</rscale>
<asrwt>0</asrwt>
<pdfrwt beam="1">  1       21 0.13973027E+00 0.13999998E+04</pdfrwt>
<pdfrwt beam="2">  1       21 0.83000127E-01 0.13999998E+04</pdfrwt>
<totfact> 0.33945610E+02</totfact>
</mgrwt>
<rwgt>
<wgt id='1001'> +2.8343000e+11 </wgt>
<wgt id='1002'> +2.8395591e+11 </wgt>
<wgt id='1003'> +2.8395555e+11 </wgt>
<wgt id='1004'> +3.1852433e+11 </wgt>
<wgt id='1005'> +2.8343000e+11 </wgt>
<wgt id='1006'> +2.8343000e+11 </wgt>
<wgt id='1007'> +2.8395591e+11 </wgt>
<wgt id='1008'> +2.8395555e+11 </wgt>
<wgt id='1009'> +3.1852433e+11 </wgt>
<wgt id='1010'> +2.8343000e+11 </wgt>
<wgt id='1011'> +2.8343000e+11 </wgt>
<wgt id='1012'> +2.8395591e+11 </wgt>
<wgt id='1013'> +2.8395555e+11 </wgt>
<wgt id='1014'> +3.1852433e+11 </wgt>
<wgt id='1015'> +2.8343000e+11 </wgt>
<wgt id='1016'> +2.5452796e+11 </wgt>
<wgt id='1017'> +2.5497347e+11 </wgt>
<wgt id='1018'> +2.5497316e+11 </wgt>
<wgt id='1019'> +2.8395555e+11 </wgt>
<wgt id='1020'> +2.5452796e+11 </wgt>
<wgt id='1021'> +2.5452796e+11 </wgt>
<wgt id='1022'> +2.5497347e+11 </wgt>
<wgt id='1023'> +2.5497316e+11 </wgt>
<wgt id='1024'> +2.8395555e+11 </wgt>
<wgt id='1025'> +2.5452796e+11 </wgt>
<wgt id='1026'> +2.5452796e+11 </wgt>
<wgt id='1027'> +2.5497347e+11 </wgt>
<wgt id='1028'> +2.5497316e+11 </wgt>
<wgt id='1029'> +2.8395555e+11 </wgt>
<wgt id='1030'> +2.5452796e+11 </wgt>
<wgt id='1031'> +3.1789347e+11 </wgt>
<wgt id='1032'> +3.1852477e+11 </wgt>
<wgt id='1033'> +3.1852433e+11 </wgt>
<wgt id='1034'> +3.6009511e+11 </wgt>
<wgt id='1035'> +3.1789347e+11 </wgt>
<wgt id='1036'> +3.1789347e+11 </wgt>
<wgt id='1037'> +3.1852477e+11 </wgt>
<wgt id='1038'> +3.1852433e+11 </wgt>
<wgt id='1039'> +3.6009511e+11 </wgt>
<wgt id='1040'> +3.1789347e+11 </wgt>
<wgt id='1041'> +3.1789347e+11 </wgt>
<wgt id='1042'> +3.1852477e+11 </wgt>
<wgt id='1043'> +3.1852433e+11 </wgt>
<wgt id='1044'> +3.6009511e+11 </wgt>
<wgt id='1045'> +3.1789347e+11 </wgt>
<wgt id='1046'> +2.8343000e+11 </wgt>
<wgt id='1047'> +2.8343000e+11 </wgt>
<wgt id='1048'> +2.8343000e+11 </wgt>
<wgt id='1049'> +2.8247748e+11 </wgt>
<wgt id='1050'> +2.8315138e+11 </wgt>
<wgt id='1051'> +2.8350831e+11 </wgt>
<wgt id='1052'> +2.8429978e+11 </wgt>
<wgt id='1053'> +2.8182932e+11 </wgt>
<wgt id='1054'> +2.8381098e+11 </wgt>
<wgt id='1055'> +2.8226005e+11 </wgt>
<wgt id='1056'> +2.8196396e+11 </wgt>
<wgt id='1057'> +2.8400678e+11 </wgt>
<wgt id='1058'> +2.8298162e+11 </wgt>
<wgt id='1059'> +2.8530920e+11 </wgt>
<wgt id='1060'> +2.8370147e+11 </wgt>
<wgt id='1061'> +2.8408809e+11 </wgt>
<wgt id='1062'> +2.8411158e+11 </wgt>
<wgt id='1063'> +2.8396110e+11 </wgt>
<wgt id='1064'> +2.8442474e+11 </wgt>
<wgt id='1065'> +2.8476433e+11 </wgt>
<wgt id='1066'> +2.8163371e+11 </wgt>
<wgt id='1067'> +2.8041508e+11 </wgt>
<wgt id='1068'> +2.8353732e+11 </wgt>
<wgt id='1069'> +2.8264641e+11 </wgt>
<wgt id='1070'> +2.8364063e+11 </wgt>
<wgt id='1071'> +2.8424493e+11 </wgt>
<wgt id='1072'> +2.8140026e+11 </wgt>
<wgt id='1073'> +2.8392765e+11 </wgt>
<wgt id='1074'> +2.8329062e+11 </wgt>
<wgt id='1075'> +2.8448307e+11 </wgt>
<wgt id='1076'> +2.8245739e+11 </wgt>
<wgt id='1077'> +2.8255320e+11 </wgt>
<wgt id='1078'> +2.8409779e+11 </wgt>
<wgt id='1079'> +2.8198578e+11 </wgt>
<wgt id='1080'> +2.8296593e+11 </wgt>
<wgt id='1081'> +2.8296493e+11 </wgt>
<wgt id='1082'> +2.8211354e+11 </wgt>
<wgt id='1083'> +2.8389518e+11 </wgt>
<wgt id='1084'> +2.8401364e+11 </wgt>
<wgt id='1085'> +2.8281207e+11 </wgt>
<wgt id='1086'> +2.8295812e+11 </wgt>
<wgt id='1087'> +2.8309786e+11 </wgt>
<wgt id='1088'> +2.8293919e+11 </wgt>
<wgt id='1089'> +2.8276185e+11 </wgt>
<wgt id='1090'> +2.8414372e+11 </wgt>
<wgt id='1091'> +2.8352392e+11 </wgt>
<wgt id='1092'> +2.8368319e+11 </wgt>
<wgt id='1093'> +2.8331064e+11 </wgt>
<wgt id='1094'> +2.8282874e+11 </wgt>
<wgt id='1095'> +2.8357686e+11 </wgt>
<wgt id='1096'> +2.8335231e+11 </wgt>
<wgt id='1097'> +2.8302159e+11 </wgt>
<wgt id='1098'> +2.8309170e+11 </wgt>
<wgt id='1099'> +2.8317224e+11 </wgt>
<wgt id='1100'> +2.8401318e+11 </wgt>
<wgt id='1101'> +2.8341160e+11 </wgt>
<wgt id='1102'> +2.8328268e+11 </wgt>
<wgt id='1103'> +2.8308004e+11 </wgt>
<wgt id='1104'> +2.8312956e+11 </wgt>
<wgt id='1105'> +2.8354937e+11 </wgt>
<wgt id='1106'> +2.8374500e+11 </wgt>
<wgt id='1107'> +2.8334997e+11 </wgt>
<wgt id='1108'> +2.8332889e+11 </wgt>
<wgt id='1109'> +2.8321792e+11 </wgt>
<wgt id='1110'> +2.8374869e+11 </wgt>
<wgt id='1111'> +2.8356252e+11 </wgt>
<wgt id='1112'> +2.8339055e+11 </wgt>
<wgt id='1113'> +2.8374268e+11 </wgt>
<wgt id='1114'> +2.8311375e+11 </wgt>
<wgt id='1115'> +2.8320509e+11 </wgt>
<wgt id='1116'> +2.8378971e+11 </wgt>
<wgt id='1117'> +2.8336811e+11 </wgt>
<wgt id='1118'> +2.8353443e+11 </wgt>
<wgt id='1119'> +2.8322579e+11 </wgt>
<wgt id='1120'> +2.8326309e+11 </wgt>
<wgt id='1121'> +2.8348503e+11 </wgt>
<wgt id='1122'> +2.8321235e+11 </wgt>
<wgt id='1123'> +2.8337795e+11 </wgt>
<wgt id='1124'> +2.8337617e+11 </wgt>
<wgt id='1125'> +2.8359178e+11 </wgt>
<wgt id='1126'> +2.8353927e+11 </wgt>
<wgt id='1127'> +2.8332445e+11 </wgt>
<wgt id='1128'> +2.8345382e+11 </wgt>
<wgt id='1129'> +2.8336834e+11 </wgt>
<wgt id='1130'> +2.8346418e+11 </wgt>
<wgt id='1131'> +2.8373120e+11 </wgt>
<wgt id='1132'> +2.8334975e+11 </wgt>
<wgt id='1133'> +2.8350927e+11 </wgt>
<wgt id='1134'> +2.8340853e+11 </wgt>
<wgt id='1135'> +2.8347291e+11 </wgt>
<wgt id='1136'> +2.8338304e+11 </wgt>
<wgt id='1137'> +2.8327265e+11 </wgt>
<wgt id='1138'> +2.8355122e+11 </wgt>
<wgt id='1139'> +2.8347962e+11 </wgt>
<wgt id='1140'> +2.8363623e+11 </wgt>
<wgt id='1141'> +2.8328235e+11 </wgt>
<wgt id='1142'> +2.8350461e+11 </wgt>
<wgt id='1143'> +2.8359885e+11 </wgt>
<wgt id='1144'> +2.8334203e+11 </wgt>
<wgt id='1145'> +2.8356158e+11 </wgt>
<wgt id='1146'> +2.8342398e+11 </wgt>
<wgt id='1147'> +2.8348030e+11 </wgt>
<wgt id='1148'> +2.8343000e+11 </wgt>
<wgt id='1149'> +2.8343000e+11 </wgt>
<wgt id='1150'> +2.9409226e+11 </wgt>
<wgt id='1151'> +2.7994792e+11 </wgt>
<wgt id='1152'> +2.8252712e+11 </wgt>
<wgt id='1153'> +2.8706230e+11 </wgt>
<wgt id='1154'> +2.8585728e+11 </wgt>
<wgt id='1155'> +2.8973455e+11 </wgt>
<wgt id='1156'> +2.7692961e+11 </wgt>
<wgt id='1157'> +2.7558276e+11 </wgt>
<wgt id='1158'> +2.7741494e+11 </wgt>
<wgt id='1159'> +2.9779639e+11 </wgt>
<wgt id='1160'> +2.8282791e+11 </wgt>
<wgt id='1161'> +2.8559623e+11 </wgt>
<wgt id='1162'> +2.7965988e+11 </wgt>
<wgt id='1163'> +2.8643060e+11 </wgt>
<wgt id='1164'> +2.6923725e+11 </wgt>
<wgt id='1165'> +2.7836991e+11 </wgt>
<wgt id='1166'> +2.8421249e+11 </wgt>
<wgt id='1167'> +2.7908828e+11 </wgt>
<wgt id='1168'> +2.7584118e+11 </wgt>
<wgt id='1169'> +2.7576441e+11 </wgt>
<wgt id='1170'> +2.7923883e+11 </wgt>
<wgt id='1171'> +2.7311948e+11 </wgt>
<wgt id='1172'> +2.7666271e+11 </wgt>
<wgt id='1173'> +2.8687287e+11 </wgt>
<wgt id='1174'> +2.7859387e+11 </wgt>
<wgt id='1175'> +2.7627264e+11 </wgt>
<wgt id='1176'> +2.8634342e+11 </wgt>
<wgt id='1177'> +2.7864104e+11 </wgt>
<wgt id='1178'> +2.8308553e+11 </wgt>
<wgt id='1179'> +2.8082418e+11 </wgt>
<wgt id='1180'> +2.8775970e+11 </wgt>
<wgt id='1181'> +2.8049996e+11 </wgt>
<wgt id='1182'> +2.8084771e+11 </wgt>
<wgt id='1183'> +2.9373901e+11 </wgt>
<wgt id='1184'> +2.8056113e+11 </wgt>
<wgt id='1185'> +2.8398345e+11 </wgt>
<wgt id='1186'> +2.7372963e+11 </wgt>
<wgt id='1187'> +2.8500318e+11 </wgt>
<wgt id='1188'> +2.8175364e+11 </wgt>
<wgt id='1189'> +2.8424356e+11 </wgt>
<wgt id='1190'> +2.8310829e+11 </wgt>
<wgt id='1191'> +2.9351021e+11 </wgt>
<wgt id='1192'> +2.9075990e+11 </wgt>
<wgt id='1193'> +2.9391208e+11 </wgt>
<wgt id='1194'> +2.8333831e+11 </wgt>
<wgt id='1195'> +2.8366775e+11 </wgt>
<wgt id='1196'> +2.9203620e+11 </wgt>
<wgt id='1197'> +2.9289442e+11 </wgt>
<wgt id='1198'> +2.7854491e+11 </wgt>
<wgt id='1199'> +2.8470785e+11 </wgt>
<wgt id='1200'> +2.8380611e+11 </wgt>
<wgt id='1201'> +2.7959452e+11 </wgt>
<wgt id='1202'> +2.8795067e+11 </wgt>
<wgt id='1203'> +2.7866903e+11 </wgt>
<wgt id='1204'> +2.8641107e+11 </wgt>
<wgt id='1205'> +2.8435472e+11 </wgt>
<wgt id='1206'> +2.7748588e+11 </wgt>
<wgt id='1207'> +2.9227128e+11 </wgt>
<wgt id='1208'> +2.7193479e+11 </wgt>
<wgt id='1209'> +2.8014638e+11 </wgt>
<wgt id='1210'> +2.8202547e+11 </wgt>
<wgt id='1211'> +2.8573753e+11 </wgt>
<wgt id='1212'> +2.8330061e+11 </wgt>
<wgt id='1213'> +2.9198232e+11 </wgt>
<wgt id='1214'> +2.7604105e+11 </wgt>
<wgt id='1215'> +2.8987792e+11 </wgt>
<wgt id='1216'> +2.8504114e+11 </wgt>
<wgt id='1217'> +2.7625467e+11 </wgt>
<wgt id='1218'> +2.8466092e+11 </wgt>
<wgt id='1219'> +2.9401044e+11 </wgt>
<wgt id='1220'> +2.7781873e+11 </wgt>
<wgt id='1221'> +2.7559602e+11 </wgt>
<wgt id='1222'> +2.7966976e+11 </wgt>
<wgt id='1223'> +2.7276073e+11 </wgt>
<wgt id='1224'> +2.8334729e+11 </wgt>
<wgt id='1225'> +2.8834344e+11 </wgt>
<wgt id='1226'> +2.8924649e+11 </wgt>
<wgt id='1227'> +2.7541387e+11 </wgt>
<wgt id='1228'> +2.8159196e+11 </wgt>
<wgt id='1229'> +3.0235903e+11 </wgt>
<wgt id='1230'> +2.9270892e+11 </wgt>
<wgt id='1231'> +2.7836991e+11 </wgt>
<wgt id='1232'> +2.8831074e+11 </wgt>
<wgt id='1233'> +2.7744550e+11 </wgt>
<wgt id='1234'> +2.7659286e+11 </wgt>
<wgt id='1235'> +3.0162957e+11 </wgt>
<wgt id='1236'> +2.7673958e+11 </wgt>
<wgt id='1237'> +2.8929197e+11 </wgt>
<wgt id='1238'> +2.8738763e+11 </wgt>
<wgt id='1239'> +2.8991069e+11 </wgt>
<wgt id='1240'> +2.8331988e+11 </wgt>
<wgt id='1241'> +2.8279284e+11 </wgt>
<wgt id='1242'> +2.8031775e+11 </wgt>
<wgt id='1243'> +2.8785562e+11 </wgt>
<wgt id='1244'> +2.8234699e+11 </wgt>
<wgt id='1245'> +2.8102436e+11 </wgt>
<wgt id='1246'> +3.0627121e+11 </wgt>
<wgt id='1247'> +2.8279817e+11 </wgt>
<wgt id='1248'> +2.7449309e+11 </wgt>
<wgt id='1249'> +2.7690150e+11 </wgt>
<wgt id='1250'> +2.9234911e+11 </wgt>
<wgt id='1251'> +2.9841800e+11 </wgt>
<wgt id='1252'> +2.8661269e+11 </wgt>
<wgt id='1253'> +2.8549400e+11 </wgt>
<wgt id='1254'> +2.8782500e+11 </wgt>
<wgt id='1255'> +2.9816155e+11 </wgt>
<wgt id='1256'> +2.9678133e+11 </wgt>
<wgt id='1257'> +2.8888992e+11 </wgt>
<wgt id='1258'> +2.9757845e+11 </wgt>
<wgt id='1259'> +2.9535632e+11 </wgt>
<wgt id='1260'> +3.2468013e+11 </wgt>
<wgt id='1261'> +3.1292118e+11 </wgt>
<wgt id='1262'> +2.8965716e+11 </wgt>
<wgt id='1263'> +2.9646276e+11 </wgt>
<wgt id='1264'> +2.9865410e+11 </wgt>
<wgt id='1265'> +2.9694330e+11 </wgt>
<wgt id='1266'> +2.9553850e+11 </wgt>
<wgt id='1267'> +3.2106411e+11 </wgt>
<wgt id='1268'> +2.9237692e+11 </wgt>
<wgt id='1269'> +2.8637228e+11 </wgt>
<wgt id='1270'> +2.9343645e+11 </wgt>
<wgt id='1271'> +2.7584708e+11 </wgt>
<wgt id='1272'> +2.9242945e+11 </wgt>
<wgt id='1273'> +2.9069692e+11 </wgt>
<wgt id='1274'> +2.8636107e+11 </wgt>
<wgt id='1275'> +2.9679996e+11 </wgt>
<wgt id='1276'> +2.9603195e+11 </wgt>
<wgt id='1277'> +2.9130635e+11 </wgt>
<wgt id='1278'> +2.8925801e+11 </wgt>
<wgt id='1279'> +2.8009137e+11 </wgt>
<wgt id='1280'> +2.9077490e+11 </wgt>
<wgt id='1281'> +2.8474329e+11 </wgt>
<wgt id='1282'> +2.9554970e+11 </wgt>
<wgt id='1283'> +2.9775476e+11 </wgt>
<wgt id='1284'> +3.1277796e+11 </wgt>
<wgt id='1285'> +3.0736007e+11 </wgt>
<wgt id='1286'> +3.2792763e+11 </wgt>
<wgt id='1287'> +3.0277086e+11 </wgt>
<wgt id='1288'> +3.2435579e+11 </wgt>
<wgt id='1289'> +3.1228942e+11 </wgt>
<wgt id='1290'> +3.1073969e+11 </wgt>
<wgt id='1291'> +2.7717523e+11 </wgt>
<wgt id='1292'> +2.9768197e+11 </wgt>
<wgt id='1293'> +3.0012762e+11 </wgt>
<wgt id='1294'> +3.1487277e+11 </wgt>
<wgt id='1295'> +3.0080043e+11 </wgt>
<wgt id='1296'> +3.1685938e+11 </wgt>
<wgt id='1297'> +2.9390403e+11 </wgt>
<wgt id='1298'> +2.8690078e+11 </wgt>
<wgt id='1299'> +2.9887977e+11 </wgt>
<wgt id='1300'> +2.8734529e+11 </wgt>
<wgt id='1301'> +2.7938282e+11 </wgt>
<wgt id='1302'> +2.7780824e+11 </wgt>
<wgt id='1303'> +2.9839825e+11 </wgt>
<wgt id='1304'> +3.0883543e+11 </wgt>
<wgt id='1305'> +2.9761522e+11 </wgt>
<wgt id='1306'> +3.0457093e+11 </wgt>
<wgt id='1307'> +2.9988866e+11 </wgt>
<wgt id='1308'> +3.2541240e+11 </wgt>
<wgt id='1309'> +2.9586281e+11 </wgt>
<wgt id='1310'> +3.0150012e+11 </wgt>
<wgt id='1311'> +3.0526838e+11 </wgt>
<wgt id='1312'> +3.0028745e+11 </wgt>
<wgt id='1313'> +2.9723476e+11 </wgt>
<wgt id='1314'> +3.0150082e+11 </wgt>
<wgt id='1315'> +2.8476712e+11 </wgt>
<wgt id='1316'> +2.9811208e+11 </wgt>
<wgt id='1317'> +3.0197928e+11 </wgt>
<wgt id='1318'> +2.8738576e+11 </wgt>
<wgt id='1319'> +3.0411649e+11 </wgt>
<wgt id='1320'> +3.0977229e+11 </wgt>
<wgt id='1321'> +2.9388167e+11 </wgt>
<wgt id='1322'> +2.9789099e+11 </wgt>
<wgt id='1323'> +2.9630548e+11 </wgt>
<wgt id='1324'> +3.0129420e+11 </wgt>
<wgt id='1325'> +3.1033278e+11 </wgt>
<wgt id='1326'> +3.0348411e+11 </wgt>
<wgt id='1327'> +2.9652886e+11 </wgt>
<wgt id='1328'> +3.0004612e+11 </wgt>
<wgt id='1329'> +2.9704015e+11 </wgt>
<wgt id='1330'> +2.8886821e+11 </wgt>
<wgt id='1331'> +3.1900391e+11 </wgt>
<wgt id='1332'> +2.8706366e+11 </wgt>
<wgt id='1333'> +3.0022330e+11 </wgt>
<wgt id='1334'> +3.1333841e+11 </wgt>
<wgt id='1335'> +2.9196064e+11 </wgt>
<wgt id='1336'> +3.0397397e+11 </wgt>
<wgt id='1337'> +3.0769842e+11 </wgt>
<wgt id='1338'> +2.8866078e+11 </wgt>
<wgt id='1339'> +3.1858497e+11 </wgt>
<wgt id='1340'> +3.0148711e+11 </wgt>
<wgt id='1341'> +3.0679345e+11 </wgt>
<wgt id='1342'> +3.1223857e+11 </wgt>
<wgt id='1343'> +3.0903041e+11 </wgt>
<wgt id='1344'> +3.0549581e+11 </wgt>
<wgt id='1345'> +2.7628422e+11 </wgt>
<wgt id='1346'> +2.9959519e+11 </wgt>
<wgt id='1347'> +2.8690364e+11 </wgt>
<wgt id='1348'> +2.8755256e+11 </wgt>
<wgt id='1349'> +2.8806491e+11 </wgt>
<wgt id='1350'> +3.0090206e+11 </wgt>
<wgt id='1351'> +2.9486468e+11 </wgt>
<wgt id='1352'> +3.0028236e+11 </wgt>
<wgt id='1353'> +2.9694199e+11 </wgt>
<wgt id='1354'> +3.0645877e+11 </wgt>
<wgt id='1355'> +2.7517525e+11 </wgt>
<wgt id='1356'> +2.7789852e+11 </wgt>
<wgt id='1357'> +2.7583294e+11 </wgt>
<wgt id='1358'> +2.7278656e+11 </wgt>
<wgt id='1359'> +2.7572235e+11 </wgt>
<wgt id='1360'> +2.6886626e+11 </wgt>
<wgt id='1361'> +2.7495161e+11 </wgt>
<wgt id='1362'> +2.7823606e+11 </wgt>
<wgt id='1363'> +2.6975327e+11 </wgt>
<wgt id='1364'> +2.8091116e+11 </wgt>
<wgt id='1365'> +2.7288988e+11 </wgt>
<wgt id='1366'> +2.7439006e+11 </wgt>
<wgt id='1367'> +2.7591176e+11 </wgt>
<wgt id='1368'> +2.7530286e+11 </wgt>
<wgt id='1369'> +2.7887150e+11 </wgt>
<wgt id='1370'> +2.7329233e+11 </wgt>
<wgt id='1371'> +2.7368193e+11 </wgt>
<wgt id='1372'> +2.7919672e+11 </wgt>
<wgt id='1373'> +2.7865290e+11 </wgt>
<wgt id='1374'> +2.6713307e+11 </wgt>
<wgt id='1375'> +2.7457961e+11 </wgt>
<wgt id='1376'> +2.7564929e+11 </wgt>
<wgt id='1377'> +2.7538578e+11 </wgt>
<wgt id='1378'> +2.7176159e+11 </wgt>
<wgt id='1379'> +2.7365100e+11 </wgt>
<wgt id='1380'> +2.7333013e+11 </wgt>
<wgt id='1381'> +2.8037921e+11 </wgt>
<wgt id='1382'> +2.7467980e+11 </wgt>
<wgt id='1383'> +2.7461062e+11 </wgt>
<wgt id='1384'> +2.7315744e+11 </wgt>
<wgt id='1385'> +2.7311706e+11 </wgt>
<wgt id='1386'> +2.7641637e+11 </wgt>
<wgt id='1387'> +2.7399159e+11 </wgt>
<wgt id='1388'> +2.7118292e+11 </wgt>
<wgt id='1389'> +2.7376654e+11 </wgt>
<wgt id='1390'> +2.7483416e+11 </wgt>
<wgt id='1391'> +2.7296104e+11 </wgt>
<wgt id='1392'> +2.7293571e+11 </wgt>
<wgt id='1393'> +2.7371558e+11 </wgt>
<wgt id='1394'> +2.7305938e+11 </wgt>
<wgt id='1395'> +2.7079285e+11 </wgt>
<wgt id='1396'> +2.7606383e+11 </wgt>
<wgt id='1397'> +2.7587888e+11 </wgt>
<wgt id='1398'> +2.7609020e+11 </wgt>
<wgt id='1399'> +2.7126390e+11 </wgt>
<wgt id='1400'> +2.7186735e+11 </wgt>
<wgt id='1401'> +2.7423028e+11 </wgt>
<wgt id='1402'> +2.7829400e+11 </wgt>
<wgt id='1403'> +2.7909519e+11 </wgt>
<wgt id='1404'> +2.7399984e+11 </wgt>
<wgt id='1405'> +2.8129979e+11 </wgt>
<wgt id='1406'> +2.7539996e+11 </wgt>
<wgt id='1407'> +2.7572166e+11 </wgt>
<wgt id='1408'> +2.7875848e+11 </wgt>
<wgt id='1409'> +2.7268263e+11 </wgt>
<wgt id='1410'> +2.7169967e+11 </wgt>
<wgt id='1411'> +2.7487414e+11 </wgt>
<wgt id='1412'> +2.7374401e+11 </wgt>
<wgt id='1413'> +2.7237021e+11 </wgt>
<wgt id='1414'> +2.7716380e+11 </wgt>
<wgt id='1415'> +2.8028255e+11 </wgt>
<wgt id='1416'> +2.7807377e+11 </wgt>
<wgt id='1417'> +2.6928460e+11 </wgt>
<wgt id='1418'> +2.7643154e+11 </wgt>
<wgt id='1419'> +2.7883906e+11 </wgt>
<wgt id='1420'> +2.7417265e+11 </wgt>
<wgt id='1421'> +2.8122683e+11 </wgt>
<wgt id='1422'> +2.6789951e+11 </wgt>
<wgt id='1423'> +2.8031492e+11 </wgt>
<wgt id='1424'> +2.7630209e+11 </wgt>
<wgt id='1425'> +2.7555643e+11 </wgt>
<wgt id='1426'> +2.7827886e+11 </wgt>
<wgt id='1427'> +2.7502523e+11 </wgt>
<wgt id='1428'> +2.7489701e+11 </wgt>
<wgt id='1429'> +2.7205819e+11 </wgt>
<wgt id='1430'> +2.7068738e+11 </wgt>
<wgt id='1431'> +2.7027390e+11 </wgt>
<wgt id='1432'> +2.7643545e+11 </wgt>
<wgt id='1433'> +2.7516919e+11 </wgt>
<wgt id='1434'> +2.8218403e+11 </wgt>
<wgt id='1435'> +2.7422319e+11 </wgt>
<wgt id='1436'> +2.7911595e+11 </wgt>
<wgt id='1437'> +2.7717106e+11 </wgt>
<wgt id='1438'> +2.7356665e+11 </wgt>
<wgt id='1439'> +2.7669247e+11 </wgt>
<wgt id='1440'> +2.7925310e+11 </wgt>
<wgt id='1441'> +2.7441597e+11 </wgt>
<wgt id='1442'> +2.8208593e+11 </wgt>
<wgt id='1443'> +2.7321053e+11 </wgt>
<wgt id='1444'> +2.7445311e+11 </wgt>
<wgt id='1445'> +2.7762406e+11 </wgt>
<wgt id='1446'> +2.7822349e+11 </wgt>
<wgt id='1447'> +2.7160384e+11 </wgt>
<wgt id='1448'> +2.7755399e+11 </wgt>
<wgt id='1449'> +2.7697738e+11 </wgt>
<wgt id='1450'> +2.7366375e+11 </wgt>
<wgt id='1451'> +2.7652831e+11 </wgt>
<wgt id='1452'> +2.7801850e+11 </wgt>
<wgt id='1453'> +2.7914019e+11 </wgt>
<wgt id='1454'> +2.6825772e+11 </wgt>
<wgt id='1455'> +2.7431918e+11 </wgt>
<wgt id='1456'> +2.7435935e+11 </wgt>
<wgt id='1457'> +2.7400351e+11 </wgt>
<wgt id='1458'> +2.7768815e+11 </wgt>
<wgt id='1459'> +3.0537699e+11 </wgt>
<wgt id='1460'> +3.0065960e+11 </wgt>
<wgt id='1461'> +3.4949293e+11 </wgt>
<wgt id='1462'> +2.9867274e+11 </wgt>
<wgt id='1463'> +2.9891696e+11 </wgt>
<wgt id='1464'> +2.9835953e+11 </wgt>
<wgt id='1465'> +2.9873489e+11 </wgt>
<wgt id='1466'> +2.9861595e+11 </wgt>
<wgt id='1467'> +2.9882727e+11 </wgt>
<wgt id='1468'> +2.9841920e+11 </wgt>
<wgt id='1469'> +2.9822709e+11 </wgt>
<wgt id='1470'> +2.9903471e+11 </wgt>
<wgt id='1471'> +2.9914457e+11 </wgt>
<wgt id='1472'> +2.9818677e+11 </wgt>
<wgt id='1473'> +2.9982651e+11 </wgt>
<wgt id='1474'> +2.9756457e+11 </wgt>
<wgt id='1475'> +2.9977220e+11 </wgt>
<wgt id='1476'> +2.9789326e+11 </wgt>
<wgt id='1477'> +2.9810564e+11 </wgt>
<wgt id='1478'> +2.9999748e+11 </wgt>
<wgt id='1479'> +2.9813608e+11 </wgt>
<wgt id='1480'> +2.9904804e+11 </wgt>
<wgt id='1481'> +2.9823936e+11 </wgt>
<wgt id='1482'> +2.9925737e+11 </wgt>
<wgt id='1483'> +2.9876635e+11 </wgt>
<wgt id='1484'> +2.9854006e+11 </wgt>
<wgt id='1485'> +2.9887586e+11 </wgt>
<wgt id='1486'> +2.9818363e+11 </wgt>
<wgt id='1487'> +2.9892774e+11 </wgt>
<wgt id='1488'> +2.9835265e+11 </wgt>
<wgt id='1489'> +2.9831942e+11 </wgt>
<wgt id='1490'> +2.9963063e+11 </wgt>
<wgt id='1491'> +3.0358434e+11 </wgt>
<wgt id='1492'> +2.9593208e+11 </wgt>
<wgt id='1493'> +2.9516535e+11 </wgt>
<wgt id='1494'> +3.0966664e+11 </wgt>
<wgt id='1495'> +2.9801772e+11 </wgt>
<wgt id='1496'> +2.9937542e+11 </wgt>
<wgt id='1497'> +2.9887102e+11 </wgt>
<wgt id='1498'> +2.9840171e+11 </wgt>
<wgt id='1499'> +3.0055723e+11 </wgt>
<wgt id='1500'> +2.9764203e+11 </wgt>
<wgt id='1501'> +2.9912688e+11 </wgt>
<wgt id='1502'> +2.9746931e+11 </wgt>
<wgt id='1503'> +2.9544847e+11 </wgt>
<wgt id='1504'> +3.0211574e+11 </wgt>
<wgt id='1505'> +2.9965874e+11 </wgt>
<wgt id='1506'> +2.9772217e+11 </wgt>
<wgt id='1507'> +3.0018336e+11 </wgt>
<wgt id='1508'> +2.9746469e+11 </wgt>
<wgt id='1509'> +2.9926638e+11 </wgt>
<wgt id='1510'> +2.9612377e+11 </wgt>
<wgt id='1511'> +2.9979570e+11 </wgt>
<wgt id='1512'> +2.9834748e+11 </wgt>
<wgt id='1513'> +2.9858817e+11 </wgt>
<wgt id='1514'> +2.9875587e+11 </wgt>
<wgt id='1515'> +3.0120405e+11 </wgt>
<wgt id='1516'> +2.9904454e+11 </wgt>
<wgt id='1517'> +2.9828745e+11 </wgt>
<wgt id='1518'> +2.9901512e+11 </wgt>
<wgt id='1519'> +2.9701178e+11 </wgt>
<wgt id='1520'> +2.9985421e+11 </wgt>
<wgt id='1521'> +2.9786177e+11 </wgt>
<wgt id='1522'> +2.9915496e+11 </wgt>
<wgt id='1523'> +3.0000544e+11 </wgt>
<wgt id='1524'> +3.0006062e+11 </wgt>
<wgt id='1525'> +2.9985119e+11 </wgt>
<wgt id='1526'> +2.9952312e+11 </wgt>
<wgt id='1527'> +2.9867274e+11 </wgt>
<wgt id='1528'> +2.9840601e+11 </wgt>
<wgt id='1529'> +2.9843652e+11 </wgt>
<wgt id='1530'> +2.9471093e+11 </wgt>
<wgt id='1531'> +2.9630544e+11 </wgt>
<wgt id='1532'> +2.9392507e+11 </wgt>
<wgt id='1533'> +2.9171792e+11 </wgt>
<wgt id='1534'> +2.9470174e+11 </wgt>
<wgt id='1535'> +2.9869669e+11 </wgt>
<wgt id='1536'> +2.9366661e+11 </wgt>
<wgt id='1537'> +2.9622146e+11 </wgt>
<wgt id='1538'> +2.9316619e+11 </wgt>
<wgt id='1539'> +3.0230047e+11 </wgt>
<wgt id='1540'> +2.9560792e+11 </wgt>
<wgt id='1541'> +2.9676782e+11 </wgt>
<wgt id='1542'> +2.9627059e+11 </wgt>
<wgt id='1543'> +2.9749115e+11 </wgt>
<wgt id='1544'> +2.9439073e+11 </wgt>
<wgt id='1545'> +2.9432453e+11 </wgt>
<wgt id='1546'> +2.9237120e+11 </wgt>
<wgt id='1547'> +2.9861193e+11 </wgt>
<wgt id='1548'> +2.9437348e+11 </wgt>
<wgt id='1549'> +2.9285917e+11 </wgt>
<wgt id='1550'> +2.9712041e+11 </wgt>
<wgt id='1551'> +2.9690361e+11 </wgt>
<wgt id='1552'> +2.9573200e+11 </wgt>
<wgt id='1553'> +2.9838300e+11 </wgt>
<wgt id='1554'> +2.9617485e+11 </wgt>
<wgt id='1555'> +2.9695197e+11 </wgt>
<wgt id='1556'> +2.9869928e+11 </wgt>
<wgt id='1557'> +2.9522683e+11 </wgt>
<wgt id='1558'> +2.9635173e+11 </wgt>
<wgt id='1559'> +2.9418815e+11 </wgt>
<wgt id='1560'> +2.9505597e+11 </wgt>
<wgt id='1561'> +2.9270460e+11 </wgt>
<wgt id='1562'> +2.9493796e+11 </wgt>
<wgt id='1563'> +2.9630615e+11 </wgt>
<wgt id='1564'> +2.9587422e+11 </wgt>
<wgt id='1565'> +2.9840020e+11 </wgt>
<wgt id='1566'> +2.9635606e+11 </wgt>
<wgt id='1567'> +2.9975260e+11 </wgt>
<wgt id='1568'> +2.9623893e+11 </wgt>
<wgt id='1569'> +2.9594049e+11 </wgt>
<wgt id='1570'> +3.0191890e+11 </wgt>
<wgt id='1571'> +2.9612687e+11 </wgt>
<wgt id='1572'> +2.9824116e+11 </wgt>
<wgt id='1573'> +2.9946346e+11 </wgt>
<wgt id='1574'> +2.6695234e+11 </wgt>
<wgt id='1575'> +2.6702481e+11 </wgt>
<wgt id='1576'> +2.6688438e+11 </wgt>
<wgt id='1577'> +2.6697073e+11 </wgt>
<wgt id='1578'> +2.6756539e+11 </wgt>
<wgt id='1579'> +2.6781065e+11 </wgt>
<wgt id='1580'> +2.6758354e+11 </wgt>
<wgt id='1581'> +2.6633702e+11 </wgt>
<wgt id='1582'> +2.6603324e+11 </wgt>
<wgt id='1583'> +2.6649899e+11 </wgt>
<wgt id='1584'> +2.6753564e+11 </wgt>
<wgt id='1585'> +2.6714729e+11 </wgt>
<wgt id='1586'> +2.6594793e+11 </wgt>
<wgt id='1587'> +2.6619574e+11 </wgt>
<wgt id='1588'> +2.6569664e+11 </wgt>
<wgt id='1589'> +2.6669054e+11 </wgt>
<wgt id='1590'> +2.6677075e+11 </wgt>
<wgt id='1591'> +2.6702165e+11 </wgt>
<wgt id='1592'> +2.6592186e+11 </wgt>
<wgt id='1593'> +2.6606037e+11 </wgt>
<wgt id='1594'> +2.6779209e+11 </wgt>
<wgt id='1595'> +2.6468119e+11 </wgt>
<wgt id='1596'> +2.7060893e+11 </wgt>
<wgt id='1597'> +2.6870021e+11 </wgt>
<wgt id='1598'> +2.6891321e+11 </wgt>
<wgt id='1599'> +2.6417699e+11 </wgt>
<wgt id='1600'> +2.7142569e+11 </wgt>
<wgt id='1601'> +2.6909226e+11 </wgt>
<wgt id='1602'> +2.6700677e+11 </wgt>
<wgt id='1603'> +2.7783376e+11 </wgt>
<wgt id='1604'> +2.6692384e+11 </wgt>
</rwgt>
</event>
<event>
 9      1 +2.8343000e+11 1.39999900e+03 7.81738600e-03 7.88881200e-02
       21 -1    0    0  504  503 +0.0000000000e+00 +0.0000000000e+00 +1.7825614774e+03 1.7825614774e+03 0.0000000000e+00 0.0000e+00 1.0000e+00
       21 -1    0    0  503  504 -0.0000000000e+00 -0.0000000000e+00 -2.7488509391e+02 2.7488509391e+02 0.0000000000e+00 0.0000e+00 1.0000e+00
       45  2    1    2    0    0 -5.6843418861e-14 +5.6843418861e-14 +1.5076763835e+03 2.0574465714e+03 1.3999993987e+03 0.0000e+00 0.0000e+00
       25  2    3    3    0    0 -3.7176803590e+02 +3.0658069504e+02 +2.7918922454e+01 4.9860553012e+02 1.2499925339e+02 0.0000e+00 0.0000e+00
       35  2    3    3    0    0 +3.7176803590e+02 -3.0658069504e+02 +1.4797574611e+03 1.5588410412e+03 9.0000295030e+01 0.0000e+00 0.0000e+00
        5  1    5    5  501    0 +3.6281426311e+02 -3.1140583633e+02 +1.4279738712e+03 1.5059000362e+03 4.2140000000e+00 0.0000e+00 1.0000e+00
       -5  1    5    5    0  501 +8.9537727938e+00 +4.8251412977e+00 +5.1783589907e+01 5.2941005047e+01 4.2140000000e+00 0.0000e+00 1.0000e+00
        5  1    4    4  502    0 -3.0625727927e+02 +3.0360588804e+02 +3.4058535493e+01 4.3260582288e+02 4.2140000000e+00 0.0000e+00 -1.0000e+00
       -5  1    4    4    0  502 -6.5510756633e+01 +2.9748069988e+00 -6.1396130383e+00 6.5999707239e+01 4.2140000000e+00 0.0000e+00 -1.0000e+00
<mgrwt>
<rscale>  0 0.13999994E+04</rscale>
<asrwt>0</asrwt>
<pdfrwt beam="1">  1       21 0.27424022E+00 0.13999994E+04</pdfrwt>
<pdfrwt beam="2">  1       21 0.42290016E-01 0.13999994E+04</pdfrwt>
<totfact> 0.15435263E+02</totfact>
</mgrwt>
<rwgt>
<wgt id='1001'> +2.8343000e+11 </wgt>
<wgt id='1002'> +3.0137317e+11 </wgt>
<wgt id='1003'> +3.0132824e+11 </wgt>
<wgt id='1004'> +3.4227078e+11 </wgt>
<wgt id='1005'> +2.8343000e+11 </wgt>
<wgt id='1006'> +2.8343000e+11 </wgt>
<wgt id='1007'> +3.0137317e+11 </wgt>
<wgt id='1008'> +3.0132824e+11 </wgt>
<wgt id='1009'> +3.4227078e+11 </wgt>
<wgt id='1010'> +2.8343000e+11 </wgt>
<wgt id='1011'> +2.8343000e+11 </wgt>
<wgt id='1012'> +3.0137317e+11 </wgt>
<wgt id='1013'> +3.0132824e+11 </wgt>
<wgt id='1014'> +3.4227078e+11 </wgt>
<wgt id='1015'> +2.8343000e+11 </wgt>
<wgt id='1016'> +2.5246547e+11 </wgt>
<wgt id='1017'> +2.6747478e+11 </wgt>
<wgt id='1018'> +2.6743743e+11 </wgt>
<wgt id='1019'> +3.0132824e+11 </wgt>
<wgt id='1020'> +2.5246547e+11 </wgt>
<wgt id='1021'> +2.5246547e+11 </wgt>
<wgt id='1022'> +2.6747478e+11 </wgt>
<wgt id='1023'> +2.6743743e+11 </wgt>
<wgt id='1024'> +3.0132824e+11 </wgt>
<wgt id='1025'> +2.5246547e+11 </wgt>
<wgt id='1026'> +2.5246547e+11 </wgt>
<wgt id='1027'> +2.6747478e+11 </wgt>
<wgt id='1028'> +2.6743743e+11 </wgt>
<wgt id='1029'> +3.0132824e+11 </wgt>
<wgt id='1030'> +2.5246547e+11 </wgt>
<wgt id='1031'> +3.2061417e+11 </wgt>
<wgt id='1032'> +3.4232508e+11 </wgt>
<wgt id='1033'> +3.4227078e+11 </wgt>
<wgt id='1034'> +3.9219830e+11 </wgt>
<wgt id='1035'> +3.2061417e+11 </wgt>
<wgt id='1036'> +3.2061417e+11 </wgt>
<wgt id='1037'> +3.4232508e+11 </wgt>
<wgt id='1038'> +3.4227078e+11 </wgt>
<wgt id='1039'> +3.9219830e+11 </wgt>
<wgt id='1040'> +3.2061417e+11 </wgt>
<wgt id='1041'> +3.2061417e+11 </wgt>
<wgt id='1042'> +3.4232508e+11 </wgt>
<wgt id='1043'> +3.4227078e+11 </wgt>
<wgt id='1044'> +3.9219830e+11 </wgt>
<wgt id='1045'> +3.2061417e+11 </wgt>
<wgt id='1046'> +2.8343000e+11 </wgt>
<wgt id='1047'> +2.8343000e+11 </wgt>
<wgt id='1048'> +2.8343000e+11 </wgt>
<wgt id='1049'> +2.8323710e+11 </wgt>
<wgt id='1050'> +2.8281627e+11 </wgt>
<wgt id='1051'> +2.8355860e+11 </wgt>
<wgt id='1052'> +2.8368069e+11 </wgt>
<wgt id='1053'> +2.8158099e+11 </wgt>
<wgt id='1054'> +2.8475867e+11 </wgt>
<wgt id='1055'> +2.8197667e+11 </wgt>
<wgt id='1056'> +2.8159350e+11 </wgt>
<wgt id='1057'> +2.8221481e+11 </wgt>
<wgt id='1058'> +2.8281813e+11 </wgt>
<wgt id='1059'> +2.8579477e+11 </wgt>
<wgt id='1060'> +2.8324068e+11 </wgt>
<wgt id='1061'> +2.8445782e+11 </wgt>
<wgt id='1062'> +2.8461036e+11 </wgt>
<wgt id='1063'> +2.8471112e+11 </wgt>
<wgt id='1064'> +2.8460350e+11 </wgt>
<wgt id='1065'> +2.8536183e+11 </wgt>
<wgt id='1066'> +2.8217298e+11 </wgt>
<wgt id='1067'> +2.8203851e+11 </wgt>
<wgt id='1068'> +2.8413207e+11 </wgt>
<wgt id='1069'> +2.8243016e+11 </wgt>
<wgt id='1070'> +2.8355556e+11 </wgt>
<wgt id='1071'> +2.8398396e+11 </wgt>
<wgt id='1072'> +2.8324849e+11 </wgt>
<wgt id='1073'> +2.8244371e+11 </wgt>
<wgt id='1074'> +2.8261411e+11 </wgt>
<wgt id='1075'> +2.8201285e+11 </wgt>
<wgt id='1076'> +2.8317973e+11 </wgt>
<wgt id='1077'> +2.8113914e+11 </wgt>
<wgt id='1078'> +2.8280306e+11 </wgt>
<wgt id='1079'> +2.8260185e+11 </wgt>
<wgt id='1080'> +2.8260095e+11 </wgt>
<wgt id='1081'> +2.8308972e+11 </wgt>
<wgt id='1082'> +2.8348366e+11 </wgt>
<wgt id='1083'> +2.8422579e+11 </wgt>
<wgt id='1084'> +2.8389192e+11 </wgt>
<wgt id='1085'> +2.8203389e+11 </wgt>
<wgt id='1086'> +2.8502837e+11 </wgt>
<wgt id='1087'> +2.8388439e+11 </wgt>
<wgt id='1088'> +2.8262082e+11 </wgt>
<wgt id='1089'> +2.8265079e+11 </wgt>
<wgt id='1090'> +2.8428032e+11 </wgt>
<wgt id='1091'> +2.8381834e+11 </wgt>
<wgt id='1092'> +2.8350542e+11 </wgt>
<wgt id='1093'> +2.8330507e+11 </wgt>
<wgt id='1094'> +2.8177142e+11 </wgt>
<wgt id='1095'> +2.8400258e+11 </wgt>
<wgt id='1096'> +2.8350038e+11 </wgt>
<wgt id='1097'> +2.8253945e+11 </wgt>
<wgt id='1098'> +2.8306334e+11 </wgt>
<wgt id='1099'> +2.8337504e+11 </wgt>
<wgt id='1100'> +2.8384708e+11 </wgt>
<wgt id='1101'> +2.8338457e+11 </wgt>
<wgt id='1102'> +2.8327626e+11 </wgt>
<wgt id='1103'> +2.8203891e+11 </wgt>
<wgt id='1104'> +2.8367041e+11 </wgt>
<wgt id='1105'> +2.8355612e+11 </wgt>
<wgt id='1106'> +2.8395264e+11 </wgt>
<wgt id='1107'> +2.8392592e+11 </wgt>
<wgt id='1108'> +2.8311974e+11 </wgt>
<wgt id='1109'> +2.8352595e+11 </wgt>
<wgt id='1110'> +2.8349925e+11 </wgt>
<wgt id='1111'> +2.8419379e+11 </wgt>
<wgt id='1112'> +2.8310880e+11 </wgt>
<wgt id='1113'> +2.8377726e+11 </wgt>
<wgt id='1114'> +2.8310816e+11 </wgt>
<wgt id='1115'> +2.8252600e+11 </wgt>
<wgt id='1116'> +2.8453651e+11 </wgt>
<wgt id='1117'> +2.8326049e+11 </wgt>
<wgt id='1118'> +2.8407369e+11 </wgt>
<wgt id='1119'> +2.8269105e+11 </wgt>
<wgt id='1120'> +2.8263068e+11 </wgt>
<wgt id='1121'> +2.8341905e+11 </wgt>
<wgt id='1122'> +2.8274537e+11 </wgt>
<wgt id='1123'> +2.8335683e+11 </wgt>
<wgt id='1124'> +2.8366556e+11 </wgt>
<wgt id='1125'> +2.8364555e+11 </wgt>
<wgt id='1126'> +2.8358244e+11 </wgt>
<wgt id='1127'> +2.8336674e+11 </wgt>
<wgt id='1128'> +2.8330431e+11 </wgt>
<wgt id='1129'> +2.8307976e+11 </wgt>
<wgt id='1130'> +2.8346291e+11 </wgt>
<wgt id='1131'> +2.8431273e+11 </wgt>
<wgt id='1132'> +2.8321677e+11 </wgt>
<wgt id='1133'> +2.8368356e+11 </wgt>
<wgt id='1134'> +2.8331248e+11 </wgt>
<wgt id='1135'> +2.8349724e+11 </wgt>
<wgt id='1136'> +2.8318361e+11 </wgt>
<wgt id='1137'> +2.8305979e+11 </wgt>
<wgt id='1138'> +2.8361863e+11 </wgt>
<wgt id='1139'> +2.8371418e+11 </wgt>
<wgt id='1140'> +2.8380499e+11 </wgt>
<wgt id='1141'> +2.8301697e+11 </wgt>
<wgt id='1142'> +2.8346511e+11 </wgt>
<wgt id='1143'> +2.8373294e+11 </wgt>
<wgt id='1144'> +2.8333005e+11 </wgt>
<wgt id='1145'> +2.8366423e+11 </wgt>
<wgt id='1146'> +2.8361231e+11 </wgt>
<wgt id='1147'> +2.8352573e+11 </wgt>
<wgt id='1148'> +2.8343000e+11 </wgt>
<wgt id='1149'> +2.8343000e+11 </wgt>
<wgt id='1150'> +2.8624203e+11 </wgt>
<wgt id='1151'> +2.7778015e+11 </wgt>
<wgt id='1152'> +2.7682327e+11 </wgt>
<wgt id='1153'> +2.8537536e+11 </wgt>
<wgt id='1154'> +2.7342818e+11 </wgt>
<wgt id='1155'> +3.0049305e+11 </wgt>
<wgt id='1156'> +2.8573310e+11 </wgt>
<wgt id='1157'> +2.8063341e+11 </wgt>
<wgt id='1158'> +2.7863544e+11 </wgt>
<wgt id='1159'> +2.8992296e+11 </wgt>
<wgt id='1160'> +2.7636553e+11 </wgt>
<wgt id='1161'> +2.9921189e+11 </wgt>
<wgt id='1162'> +2.8483755e+11 </wgt>
<wgt id='1163'> +2.8812202e+11 </wgt>
<wgt id='1164'> +2.7106705e+11 </wgt>
<wgt id='1165'> +2.7308283e+11 </wgt>
<wgt id='1166'> +2.8331769e+11 </wgt>
<wgt id='1167'> +2.8001832e+11 </wgt>
<wgt id='1168'> +2.6919252e+11 </wgt>
<wgt id='1169'> +2.7407640e+11 </wgt>
<wgt id='1170'> +2.8354832e+11 </wgt>
<wgt id='1171'> +2.7398277e+11 </wgt>
<wgt id='1172'> +2.6873322e+11 </wgt>
<wgt id='1173'> +2.8883076e+11 </wgt>
<wgt id='1174'> +2.7978007e+11 </wgt>
<wgt id='1175'> +2.7761963e+11 </wgt>
<wgt id='1176'> +2.8926167e+11 </wgt>
<wgt id='1177'> +2.8631882e+11 </wgt>
<wgt id='1178'> +2.8561187e+11 </wgt>
<wgt id='1179'> +2.9492513e+11 </wgt>
<wgt id='1180'> +2.8263710e+11 </wgt>
<wgt id='1181'> +2.8593302e+11 </wgt>
<wgt id='1182'> +2.8399022e+11 </wgt>
<wgt id='1183'> +2.9137071e+11 </wgt>
<wgt id='1184'> +2.6452508e+11 </wgt>
<wgt id='1185'> +2.9169365e+11 </wgt>
<wgt id='1186'> +2.7721282e+11 </wgt>
<wgt id='1187'> +2.9253493e+11 </wgt>
<wgt id='1188'> +2.9591423e+11 </wgt>
<wgt id='1189'> +2.8769677e+11 </wgt>
<wgt id='1190'> +2.8226014e+11 </wgt>
<wgt id='1191'> +2.9787218e+11 </wgt>
<wgt id='1192'> +2.8702439e+11 </wgt>
<wgt id='1193'> +2.8713252e+11 </wgt>
<wgt id='1194'> +2.7332461e+11 </wgt>
<wgt id='1195'> +2.9256710e+11 </wgt>
<wgt id='1196'> +2.8490085e+11 </wgt>
<wgt id='1197'> +2.9079461e+11 </wgt>
<wgt id='1198'> +2.8134712e+11 </wgt>
<wgt id='1199'> +2.8336449e+11 </wgt>
<wgt id='1200'> +2.9168534e+11 </wgt>
<wgt id='1201'> +2.8863570e+11 </wgt>
<wgt id='1202'> +2.8048762e+11 </wgt>
<wgt id='1203'> +2.8912280e+11 </wgt>
<wgt id='1204'> +2.7576182e+11 </wgt>
<wgt id='1205'> +2.9102874e+11 </wgt>
<wgt id='1206'> +2.7906070e+11 </wgt>
<wgt id='1207'> +2.9575479e+11 </wgt>
<wgt id='1208'> +2.7683497e+11 </wgt>
<wgt id='1209'> +2.8349638e+11 </wgt>
<wgt id='1210'> +2.8384706e+11 </wgt>
<wgt id='1211'> +2.8196372e+11 </wgt>
<wgt id='1212'> +2.7738431e+11 </wgt>
<wgt id='1213'> +2.8086653e+11 </wgt>
<wgt id='1214'> +2.8004215e+11 </wgt>
<wgt id='1215'> +2.8437861e+11 </wgt>
<wgt id='1216'> +2.7284291e+11 </wgt>
<wgt id='1217'> +2.8589984e+11 </wgt>
<wgt id='1218'> +2.8151884e+11 </wgt>
<wgt id='1219'> +2.8873659e+11 </wgt>
<wgt id='1220'> +2.7912468e+11 </wgt>
<wgt id='1221'> +2.7156547e+11 </wgt>
<wgt id='1222'> +2.7916527e+11 </wgt>
<wgt id='1223'> +2.7501727e+11 </wgt>
<wgt id='1224'> +2.8107632e+11 </wgt>
<wgt id='1225'> +2.7787249e+11 </wgt>
<wgt id='1226'> +2.8438511e+11 </wgt>
<wgt id='1227'> +2.7304173e+11 </wgt>
<wgt id='1228'> +2.7743421e+11 </wgt>
<wgt id='1229'> +2.9655481e+11 </wgt>
<wgt id='1230'> +2.8574908e+11 </wgt>
<wgt id='1231'> +2.7308283e+11 </wgt>
<wgt id='1232'> +2.9096595e+11 </wgt>
<wgt id='1233'> +2.7922132e+11 </wgt>
<wgt id='1234'> +2.8065088e+11 </wgt>
<wgt id='1235'> +3.0512660e+11 </wgt>
<wgt id='1236'> +2.8562428e+11 </wgt>
<wgt id='1237'> +2.9490072e+11 </wgt>
<wgt id='1238'> +2.9436615e+11 </wgt>
<wgt id='1239'> +2.9169697e+11 </wgt>
<wgt id='1240'> +2.7617217e+11 </wgt>
<wgt id='1241'> +2.8983887e+11 </wgt>
<wgt id='1242'> +2.8311626e+11 </wgt>
<wgt id='1243'> +2.7920503e+11 </wgt>
<wgt id='1244'> +2.9147272e+11 </wgt>
<wgt id='1245'> +2.6687289e+11 </wgt>
<wgt id='1246'> +3.0294926e+11 </wgt>
<wgt id='1247'> +2.8057407e+11 </wgt>
<wgt id='1248'> +2.7545652e+11 </wgt>
<wgt id='1249'> +2.7569205e+11 </wgt>
<wgt id='1250'> +2.9747525e+11 </wgt>
<wgt id='1251'> +3.0962117e+11 </wgt>
<wgt id='1252'> +2.8851141e+11 </wgt>
<wgt id='1253'> +3.1078936e+11 </wgt>
<wgt id='1254'> +2.9343522e+11 </wgt>
<wgt id='1255'> +3.1642209e+11 </wgt>
<wgt id='1256'> +3.1154381e+11 </wgt>
<wgt id='1257'> +2.9612950e+11 </wgt>
<wgt id='1258'> +2.9352242e+11 </wgt>
<wgt id='1259'> +3.2519052e+11 </wgt>
<wgt id='1260'> +3.4552809e+11 </wgt>
<wgt id='1261'> +3.2972490e+11 </wgt>
<wgt id='1262'> +3.0381692e+11 </wgt>
<wgt id='1263'> +3.0885217e+11 </wgt>
<wgt id='1264'> +3.0535880e+11 </wgt>
<wgt id='1265'> +2.8693470e+11 </wgt>
<wgt id='1266'> +3.0826796e+11 </wgt>
<wgt id='1267'> +3.9045138e+11 </wgt>
<wgt id='1268'> +2.8616074e+11 </wgt>
<wgt id='1269'> +2.8402979e+11 </wgt>
<wgt id='1270'> +3.2299409e+11 </wgt>
<wgt id='1271'> +2.5336483e+11 </wgt>
<wgt id='1272'> +3.0188226e+11 </wgt>
<wgt id='1273'> +2.9422419e+11 </wgt>
<wgt id='1274'> +2.9314071e+11 </wgt>
<wgt id='1275'> +2.8967479e+11 </wgt>
<wgt id='1276'> +3.1801769e+11 </wgt>
<wgt id='1277'> +3.1758233e+11 </wgt>
<wgt id='1278'> +3.1111522e+11 </wgt>
<wgt id='1279'> +2.7724250e+11 </wgt>
<wgt id='1280'> +2.9826517e+11 </wgt>
<wgt id='1281'> +2.8626762e+11 </wgt>
<wgt id='1282'> +2.9288441e+11 </wgt>
<wgt id='1283'> +3.3140093e+11 </wgt>
<wgt id='1284'> +2.9859369e+11 </wgt>
<wgt id='1285'> +3.0258592e+11 </wgt>
<wgt id='1286'> +3.5159215e+11 </wgt>
<wgt id='1287'> +3.4996591e+11 </wgt>
<wgt id='1288'> +3.7198031e+11 </wgt>
<wgt id='1289'> +3.2972753e+11 </wgt>
<wgt id='1290'> +3.1774780e+11 </wgt>
<wgt id='1291'> +2.8318989e+11 </wgt>
<wgt id='1292'> +3.1310597e+11 </wgt>
<wgt id='1293'> +3.0601043e+11 </wgt>
<wgt id='1294'> +3.5544613e+11 </wgt>
<wgt id='1295'> +3.1849106e+11 </wgt>
<wgt id='1296'> +3.6189591e+11 </wgt>
<wgt id='1297'> +2.8209812e+11 </wgt>
<wgt id='1298'> +2.9480059e+11 </wgt>
<wgt id='1299'> +3.1077640e+11 </wgt>
<wgt id='1300'> +2.6166714e+11 </wgt>
<wgt id='1301'> +2.7795042e+11 </wgt>
<wgt id='1302'> +2.7625283e+11 </wgt>
<wgt id='1303'> +3.1447758e+11 </wgt>
<wgt id='1304'> +3.5675911e+11 </wgt>
<wgt id='1305'> +2.9642382e+11 </wgt>
<wgt id='1306'> +3.0757841e+11 </wgt>
<wgt id='1307'> +2.7184132e+11 </wgt>
<wgt id='1308'> +3.4248987e+11 </wgt>
<wgt id='1309'> +3.1329651e+11 </wgt>
<wgt id='1310'> +3.0919399e+11 </wgt>
<wgt id='1311'> +2.8912675e+11 </wgt>
<wgt id='1312'> +3.4841696e+11 </wgt>
<wgt id='1313'> +3.2089807e+11 </wgt>
<wgt id='1314'> +2.7855911e+11 </wgt>
<wgt id='1315'> +2.8540148e+11 </wgt>
<wgt id='1316'> +3.0126605e+11 </wgt>
<wgt id='1317'> +3.4345680e+11 </wgt>
<wgt id='1318'> +2.9186819e+11 </wgt>
<wgt id='1319'> +3.0577609e+11 </wgt>
<wgt id='1320'> +3.2929204e+11 </wgt>
<wgt id='1321'> +3.1751817e+11 </wgt>
<wgt id='1322'> +3.3099012e+11 </wgt>
<wgt id='1323'> +2.7096932e+11 </wgt>
<wgt id='1324'> +3.2576538e+11 </wgt>
<wgt id='1325'> +3.1927584e+11 </wgt>
<wgt id='1326'> +3.1929724e+11 </wgt>
<wgt id='1327'> +3.3363314e+11 </wgt>
<wgt id='1328'> +3.1501081e+11 </wgt>
<wgt id='1329'> +2.9405722e+11 </wgt>
<wgt id='1330'> +2.7731605e+11 </wgt>
<wgt id='1331'> +3.3185090e+11 </wgt>
<wgt id='1332'> +3.1777342e+11 </wgt>
<wgt id='1333'> +3.0468169e+11 </wgt>
<wgt id='1334'> +3.3850945e+11 </wgt>
<wgt id='1335'> +2.8116344e+11 </wgt>
<wgt id='1336'> +3.4486903e+11 </wgt>
<wgt id='1337'> +3.1385333e+11 </wgt>
<wgt id='1338'> +2.8201425e+11 </wgt>
<wgt id='1339'> +3.0143394e+11 </wgt>
<wgt id='1340'> +3.3770953e+11 </wgt>
<wgt id='1341'> +3.7129238e+11 </wgt>
<wgt id='1342'> +2.8677773e+11 </wgt>
<wgt id='1343'> +3.1242302e+11 </wgt>
<wgt id='1344'> +3.3407509e+11 </wgt>
<wgt id='1345'> +2.3610944e+11 </wgt>
<wgt id='1346'> +3.0901860e+11 </wgt>
<wgt id='1347'> +3.0616191e+11 </wgt>
<wgt id='1348'> +2.8980442e+11 </wgt>
<wgt id='1349'> +2.9419709e+11 </wgt>
<wgt id='1350'> +3.3970595e+11 </wgt>
<wgt id='1351'> +2.8735039e+11 </wgt>
<wgt id='1352'> +3.1165361e+11 </wgt>
<wgt id='1353'> +3.1237156e+11 </wgt>
<wgt id='1354'> +3.1884333e+11 </wgt>
<wgt id='1355'> +2.8487287e+11 </wgt>
<wgt id='1356'> +2.8741992e+11 </wgt>
<wgt id='1357'> +2.8788569e+11 </wgt>
<wgt id='1358'> +2.8272030e+11 </wgt>
<wgt id='1359'> +2.8211726e+11 </wgt>
<wgt id='1360'> +2.7962179e+11 </wgt>
<wgt id='1361'> +2.8322317e+11 </wgt>
<wgt id='1362'> +2.9429000e+11 </wgt>
<wgt id='1363'> +2.8476789e+11 </wgt>
<wgt id='1364'> +2.9878846e+11 </wgt>
<wgt id='1365'> +2.8222875e+11 </wgt>
<wgt id='1366'> +2.8259167e+11 </wgt>
<wgt id='1367'> +2.7953126e+11 </wgt>
<wgt id='1368'> +2.8921028e+11 </wgt>
<wgt id='1369'> +2.8814606e+11 </wgt>
<wgt id='1370'> +2.7570310e+11 </wgt>
<wgt id='1371'> +2.8050554e+11 </wgt>
<wgt id='1372'> +2.7926817e+11 </wgt>
<wgt id='1373'> +2.9207142e+11 </wgt>
<wgt id='1374'> +2.8347234e+11 </wgt>
<wgt id='1375'> +2.8729347e+11 </wgt>
<wgt id='1376'> +2.8557315e+11 </wgt>
<wgt id='1377'> +2.8350998e+11 </wgt>
<wgt id='1378'> +2.9044791e+11 </wgt>
<wgt id='1379'> +2.8195147e+11 </wgt>
<wgt id='1380'> +2.8224747e+11 </wgt>
<wgt id='1381'> +2.8831230e+11 </wgt>
<wgt id='1382'> +2.8046294e+11 </wgt>
<wgt id='1383'> +2.8106417e+11 </wgt>
<wgt id='1384'> +2.7552898e+11 </wgt>
<wgt id='1385'> +2.7884891e+11 </wgt>
<wgt id='1386'> +2.8044515e+11 </wgt>
<wgt id='1387'> +2.8512512e+11 </wgt>
<wgt id='1388'> +2.8223838e+11 </wgt>
<wgt id='1389'> +2.7972607e+11 </wgt>
<wgt id='1390'> +2.8849589e+11 </wgt>
<wgt id='1391'> +2.9027499e+11 </wgt>
<wgt id='1392'> +2.7556258e+11 </wgt>
<wgt id='1393'> +2.8927796e+11 </wgt>
<wgt id='1394'> +2.8793260e+11 </wgt>
<wgt id='1395'> +2.7664202e+11 </wgt>
<wgt id='1396'> +2.8490237e+11 </wgt>
<wgt id='1397'> +2.8361041e+11 </wgt>
<wgt id='1398'> +2.9551587e+11 </wgt>
<wgt id='1399'> +2.8208094e+11 </wgt>
<wgt id='1400'> +2.7799169e+11 </wgt>
<wgt id='1401'> +2.8271701e+11 </wgt>
<wgt id='1402'> +2.8670054e+11 </wgt>
<wgt id='1403'> +2.9908808e+11 </wgt>
<wgt id='1404'> +2.8949921e+11 </wgt>
<wgt id='1405'> +2.9761738e+11 </wgt>
<wgt id='1406'> +2.9222389e+11 </wgt>
<wgt id='1407'> +2.9164528e+11 </wgt>
<wgt id='1408'> +2.9907135e+11 </wgt>
<wgt id='1409'> +2.7711223e+11 </wgt>
<wgt id='1410'> +2.7878868e+11 </wgt>
<wgt id='1411'> +2.8429815e+11 </wgt>
<wgt id='1412'> +2.9129199e+11 </wgt>
<wgt id='1413'> +2.9366917e+11 </wgt>
<wgt id='1414'> +2.8787742e+11 </wgt>
<wgt id='1415'> +2.7765617e+11 </wgt>
<wgt id='1416'> +2.8420311e+11 </wgt>
<wgt id='1417'> +2.8090627e+11 </wgt>
<wgt id='1418'> +2.8195401e+11 </wgt>
<wgt id='1419'> +2.8651840e+11 </wgt>
<wgt id='1420'> +2.7113069e+11 </wgt>
<wgt id='1421'> +2.9445472e+11 </wgt>
<wgt id='1422'> +2.7387797e+11 </wgt>
<wgt id='1423'> +2.8611710e+11 </wgt>
<wgt id='1424'> +2.8148983e+11 </wgt>
<wgt id='1425'> +2.8340940e+11 </wgt>
<wgt id='1426'> +2.9021006e+11 </wgt>
<wgt id='1427'> +2.8043211e+11 </wgt>
<wgt id='1428'> +2.7923306e+11 </wgt>
<wgt id='1429'> +2.8546965e+11 </wgt>
<wgt id='1430'> +2.8102216e+11 </wgt>
<wgt id='1431'> +2.8757283e+11 </wgt>
<wgt id='1432'> +2.7557671e+11 </wgt>
<wgt id='1433'> +2.7526706e+11 </wgt>
<wgt id='1434'> +2.8654026e+11 </wgt>
<wgt id='1435'> +2.8694618e+11 </wgt>
<wgt id='1436'> +2.8811829e+11 </wgt>
<wgt id='1437'> +2.8238378e+11 </wgt>
<wgt id='1438'> +2.8423898e+11 </wgt>
<wgt id='1439'> +2.9504410e+11 </wgt>
<wgt id='1440'> +2.8361193e+11 </wgt>
<wgt id='1441'> +2.8022153e+11 </wgt>
<wgt id='1442'> +2.8460486e+11 </wgt>
<wgt id='1443'> +2.7743343e+11 </wgt>
<wgt id='1444'> +2.9650234e+11 </wgt>
<wgt id='1445'> +2.7982738e+11 </wgt>
<wgt id='1446'> +2.9942693e+11 </wgt>
<wgt id='1447'> +2.8976726e+11 </wgt>
<wgt id='1448'> +2.8837010e+11 </wgt>
<wgt id='1449'> +2.8636532e+11 </wgt>
<wgt id='1450'> +2.8191027e+11 </wgt>
<wgt id='1451'> +2.8023314e+11 </wgt>
<wgt id='1452'> +2.8873607e+11 </wgt>
<wgt id='1453'> +2.9231356e+11 </wgt>
<wgt id='1454'> +2.7459031e+11 </wgt>
<wgt id='1455'> +2.8356739e+11 </wgt>
<wgt id='1456'> +2.8157452e+11 </wgt>
<wgt id='1457'> +2.8668093e+11 </wgt>
<wgt id='1458'> +2.9544075e+11 </wgt>
<wgt id='1459'> +3.1590345e+11 </wgt>
<wgt id='1460'> +3.0997200e+11 </wgt>
<wgt id='1461'> +3.7983919e+11 </wgt>
<wgt id='1462'> +3.0942720e+11 </wgt>
<wgt id='1463'> +3.0963655e+11 </wgt>
<wgt id='1464'> +3.0915870e+11 </wgt>
<wgt id='1465'> +3.0950145e+11 </wgt>
<wgt id='1466'> +3.0935939e+11 </wgt>
<wgt id='1467'> +3.0951207e+11 </wgt>
<wgt id='1468'> +3.0928795e+11 </wgt>
<wgt id='1469'> +3.0898999e+11 </wgt>
<wgt id='1470'> +3.0978225e+11 </wgt>
<wgt id='1471'> +3.0987013e+11 </wgt>
<wgt id='1472'> +3.0897098e+11 </wgt>
<wgt id='1473'> +3.1069539e+11 </wgt>
<wgt id='1474'> +3.0820904e+11 </wgt>
<wgt id='1475'> +3.1061040e+11 </wgt>
<wgt id='1476'> +3.0858869e+11 </wgt>
<wgt id='1477'> +3.0887717e+11 </wgt>
<wgt id='1478'> +3.1071261e+11 </wgt>
<wgt id='1479'> +3.0922916e+11 </wgt>
<wgt id='1480'> +3.0957371e+11 </wgt>
<wgt id='1481'> +3.0866415e+11 </wgt>
<wgt id='1482'> +3.1046271e+11 </wgt>
<wgt id='1483'> +3.0944261e+11 </wgt>
<wgt id='1484'> +3.0941434e+11 </wgt>
<wgt id='1485'> +3.0962035e+11 </wgt>
<wgt id='1486'> +3.0896152e+11 </wgt>
<wgt id='1487'> +3.0969674e+11 </wgt>
<wgt id='1488'> +3.0908685e+11 </wgt>
<wgt id='1489'> +3.0902299e+11 </wgt>
<wgt id='1490'> +3.1052385e+11 </wgt>
<wgt id='1491'> +3.1483769e+11 </wgt>
<wgt id='1492'> +3.0641503e+11 </wgt>
<wgt id='1493'> +3.0550611e+11 </wgt>
<wgt id='1494'> +3.2172485e+11 </wgt>
<wgt id='1495'> +3.0835578e+11 </wgt>
<wgt id='1496'> +3.1057929e+11 </wgt>
<wgt id='1497'> +3.0968336e+11 </wgt>
<wgt id='1498'> +3.0907839e+11 </wgt>
<wgt id='1499'> +3.1189928e+11 </wgt>
<wgt id='1500'> +3.0808057e+11 </wgt>
<wgt id='1501'> +3.0954272e+11 </wgt>
<wgt id='1502'> +3.0914794e+11 </wgt>
<wgt id='1503'> +3.0326271e+11 </wgt>
<wgt id='1504'> +3.1657974e+11 </wgt>
<wgt id='1505'> +3.0971117e+11 </wgt>
<wgt id='1506'> +3.0914580e+11 </wgt>
<wgt id='1507'> +3.1523471e+11 </wgt>
<wgt id='1508'> +2.9877117e+11 </wgt>
<wgt id='1509'> +3.1048548e+11 </wgt>
<wgt id='1510'> +3.0484368e+11 </wgt>
<wgt id='1511'> +3.1062633e+11 </wgt>
<wgt id='1512'> +3.0927684e+11 </wgt>
<wgt id='1513'> +3.0906678e+11 </wgt>
<wgt id='1514'> +3.0984445e+11 </wgt>
<wgt id='1515'> +3.1531928e+11 </wgt>
<wgt id='1516'> +3.0760608e+11 </wgt>
<wgt id='1517'> +3.0862377e+11 </wgt>
<wgt id='1518'> +3.1083451e+11 </wgt>
<wgt id='1519'> +3.0701671e+11 </wgt>
<wgt id='1520'> +3.1112908e+11 </wgt>
<wgt id='1521'> +3.0762834e+11 </wgt>
<wgt id='1522'> +3.1041141e+11 </wgt>
<wgt id='1523'> +3.1077674e+11 </wgt>
<wgt id='1524'> +3.1126096e+11 </wgt>
<wgt id='1525'> +3.0972448e+11 </wgt>
<wgt id='1526'> +3.1161805e+11 </wgt>
<wgt id='1527'> +3.0942720e+11 </wgt>
<wgt id='1528'> +3.0684171e+11 </wgt>
<wgt id='1529'> +3.1201911e+11 </wgt>
<wgt id='1530'> +3.0152618e+11 </wgt>
<wgt id='1531'> +3.1888424e+11 </wgt>
<wgt id='1532'> +3.2112171e+11 </wgt>
<wgt id='1533'> +3.1253802e+11 </wgt>
<wgt id='1534'> +3.1657532e+11 </wgt>
<wgt id='1535'> +3.2298774e+11 </wgt>
<wgt id='1536'> +3.1383419e+11 </wgt>
<wgt id='1537'> +3.2344864e+11 </wgt>
<wgt id='1538'> +3.1382901e+11 </wgt>
<wgt id='1539'> +3.2411585e+11 </wgt>
<wgt id='1540'> +3.2224135e+11 </wgt>
<wgt id='1541'> +3.2164995e+11 </wgt>
<wgt id='1542'> +3.1969726e+11 </wgt>
<wgt id='1543'> +3.2188581e+11 </wgt>
<wgt id='1544'> +3.1691956e+11 </wgt>
<wgt id='1545'> +3.1698633e+11 </wgt>
<wgt id='1546'> +3.1532347e+11 </wgt>
<wgt id='1547'> +3.2106825e+11 </wgt>
<wgt id='1548'> +3.1842082e+11 </wgt>
<wgt id='1549'> +3.1525779e+11 </wgt>
<wgt id='1550'> +3.2226533e+11 </wgt>
<wgt id='1551'> +3.1958206e+11 </wgt>
<wgt id='1552'> +3.1954602e+11 </wgt>
<wgt id='1553'> +3.2813416e+11 </wgt>
<wgt id='1554'> +3.1965469e+11 </wgt>
<wgt id='1555'> +3.1989102e+11 </wgt>
<wgt id='1556'> +3.2095473e+11 </wgt>
<wgt id='1557'> +3.1879698e+11 </wgt>
<wgt id='1558'> +3.1910528e+11 </wgt>
<wgt id='1559'> +3.1659180e+11 </wgt>
<wgt id='1560'> +3.1860679e+11 </wgt>
<wgt id='1561'> +3.1787582e+11 </wgt>
<wgt id='1562'> +3.1584987e+11 </wgt>
<wgt id='1563'> +3.1934341e+11 </wgt>
<wgt id='1564'> +3.1854382e+11 </wgt>
<wgt id='1565'> +3.2341991e+11 </wgt>
<wgt id='1566'> +3.1885331e+11 </wgt>
<wgt id='1567'> +3.1728404e+11 </wgt>
<wgt id='1568'> +3.1867110e+11 </wgt>
<wgt id='1569'> +3.1814445e+11 </wgt>
<wgt id='1570'> +3.2646583e+11 </wgt>
<wgt id='1571'> +3.1872773e+11 </wgt>
<wgt id='1572'> +3.1920491e+11 </wgt>
<wgt id='1573'> +3.2526220e+11 </wgt>
<wgt id='1574'> +2.4353739e+11 </wgt>
<wgt id='1575'> +2.4359874e+11 </wgt>
<wgt id='1576'> +2.4346779e+11 </wgt>
<wgt id='1577'> +2.4355490e+11 </wgt>
<wgt id='1578'> +2.4409898e+11 </wgt>
<wgt id='1579'> +2.4426735e+11 </wgt>
<wgt id='1580'> +2.4402808e+11 </wgt>
<wgt id='1581'> +2.4321185e+11 </wgt>
<wgt id='1582'> +2.4297769e+11 </wgt>
<wgt id='1583'> +2.4304293e+11 </wgt>
<wgt id='1584'> +2.4409462e+11 </wgt>
<wgt id='1585'> +2.4387084e+11 </wgt>
<wgt id='1586'> +2.4294063e+11 </wgt>
<wgt id='1587'> +2.4300248e+11 </wgt>
<wgt id='1588'> +2.4261160e+11 </wgt>
<wgt id='1589'> +2.4314031e+11 </wgt>
<wgt id='1590'> +2.4339923e+11 </wgt>
<wgt id='1591'> +2.4361961e+11 </wgt>
<wgt id='1592'> +2.4262718e+11 </wgt>
<wgt id='1593'> +2.4228010e+11 </wgt>
<wgt id='1594'> +2.4479738e+11 </wgt>
<wgt id='1595'> +2.4080361e+11 </wgt>
<wgt id='1596'> +2.4826659e+11 </wgt>
<wgt id='1597'> +2.4535830e+11 </wgt>
<wgt id='1598'> +2.4538040e+11 </wgt>
<wgt id='1599'> +2.4034050e+11 </wgt>
<wgt id='1600'> +2.4876679e+11 </wgt>
<wgt id='1601'> +2.4568657e+11 </wgt>
<wgt id='1602'> +2.4369925e+11 </wgt>
<wgt id='1603'> +2.6031396e+11 </wgt>
<wgt id='1604'> +2.4348138e+11 </wgt>
</rwgt>
</event>
<event>
 9      1 +2.8343000e+11 1.40000000e+03 7.81738600e-03 7.88881100e-02
       21 -1    0    0  504  503 +0.0000000000e+00 +0.0000000000e+00 +3.5708639431e+02 3.5708639431e+02 0.0000000000e+00 0.0000e+00 -1.0000e+00
       21 -1    0    0  503  504 -0.0000000000e+00 -0.0000000000e+00 -1.3722172670e+03 1.3722172670e+03 0.0000000000e+00 0.0000e+00 -1.0000e+00
       45  2    1    2    0    0 +0.0000000000e+00 -5.6843418861e-14 -1.0151308727e+03 1.7293036614e+03 1.4000001659e+03 0.0000e+00 0.0000e+00
       25  2    3    3    0    0 -1.2984313075e+02 +3.5158559828e+02 -1.2272939682e+03 1.2893209485e+03 1.2500540888e+02 0.0000e+00 0.0000e+00
       35  2    3    3    0    0 +1.2984313075e+02 -3.5158559828e+02 +2.1216309548e+02 4.3998271287e+02 8.9999650096e+01 0.0000e+00 0.0000e+00
        5  1    5    5  501    0 +5.3655206682e+01 -6.2429278592e+01 +7.3121573726e+01 1.1018538183e+02 4.2140000000e+00 0.0000e+00 1.0000e+00
       -5  1    5    5    0  501 +7.6187924065e+01 -2.8915631969e+02 +1.3904152176e+02 3.2979733104e+02 4.2140000000e+00 0.0000e+00 1.0000e+00
        5  1    4    4  502    0 +1.7944440756e+01 +1.1194678641e+02 -3.6282594518e+02 3.8015064150e+02 4.2140000000e+00 0.0000e+00 1.0000e+00
       -5  1    4    4    0  502 -1.4778757150e+02 +2.3963881188e+02 -8.6446802304e+02 9.0917030699e+02 4.2140000000e+00 0.0000e+00 1.0000e+00
<mgrwt>
<rscale>  0 0.14000002E+04</rscale>
<asrwt>0</asrwt>
<pdfrwt beam="1">  1       21 0.54936369E-01 0.14000002E+04</pdfrwt>
<pdfrwt beam="2">  1       21 0.21111035E+00 0.14000002E+04</pdfrwt>
<totfact> 0.23775517E+02</totfact>
</mgrwt>
<rwgt>
<wgt id='1001'> +2.8343000e+11 </wgt>
<wgt id='1002'> +3.1342944e+11 </wgt>
<wgt id='1003'> +3.1341863e+11 </wgt>
<wgt id='1004'> +3.5541999e+11 </wgt>
<wgt id='1005'> +2.8343000e+11 </wgt>
<wgt id='1006'> +2.8343000e+11 </wgt>
<wgt id='1007'> +3.1342944e+11 </wgt>
<wgt id='1008'> +3.1341863e+11 </wgt>
<wgt id='1009'> +3.5541999e+11 </wgt>
<wgt id='1010'> +2.8343000e+11 </wgt>
<wgt id='1011'> +2.8343000e+11 </wgt>
<wgt id='1012'> +3.1342944e+11 </wgt>
<wgt id='1013'> +3.1341863e+11 </wgt>
<wgt id='1014'> +3.5541999e+11 </wgt>
<wgt id='1015'> +2.8343000e+11 </wgt>
<wgt id='1016'> +2.5354132e+11 </wgt>
<wgt id='1017'> +2.7862907e+11 </wgt>
<wgt id='1018'> +2.7862007e+11 </wgt>
<wgt id='1019'> +3.1341863e+11 </wgt>
<wgt id='1020'> +2.5354132e+11 </wgt>
<wgt id='1021'> +2.5354132e+11 </wgt>
<wgt id='1022'> +2.7862907e+11 </wgt>
<wgt id='1023'> +2.7862007e+11 </wgt>
<wgt id='1024'> +3.1341863e+11 </wgt>
<wgt id='1025'> +2.5354132e+11 </wgt>
<wgt id='1026'> +2.5354132e+11 </wgt>
<wgt id='1027'> +2.7862907e+11 </wgt>
<wgt id='1028'> +2.7862007e+11 </wgt>
<wgt id='1029'> +3.1341863e+11 </wgt>
<wgt id='1030'> +2.5354132e+11 </wgt>
<wgt id='1031'> +3.1920123e+11 </wgt>
<wgt id='1032'> +3.5543311e+11 </wgt>
<wgt id='1033'> +3.5541999e+11 </wgt>
<wgt id='1034'> +4.0677761e+11 </wgt>
<wgt id='1035'> +3.1920123e+11 </wgt>
<wgt id='1036'> +3.1920123e+11 </wgt>
<wgt id='1037'> +3.5543311e+11 </wgt>
<wgt id='1038'> +3.5541999e+11 </wgt>
<wgt id='1039'> +4.0677761e+11 </wgt>
<wgt id='1040'> +3.1920123e+11 </wgt>
<wgt id='1041'> +3.1920123e+11 </wgt>
<wgt id='1042'> +3.5543311e+11 </wgt>
<wgt id='1043'> +3.5541999e+11 </wgt>
<wgt id='1044'> +4.0677761e+11 </wgt>
<wgt id='1045'> +3.1920123e+11 </wgt>
<wgt id='1046'> +2.8343000e+11 </wgt>
<wgt id='1047'> +2.8343000e+11 </wgt>
<wgt id='1048'> +2.8343000e+11 </wgt>
<wgt id='1049'> +2.8300468e+11 </wgt>
<wgt id='1050'> +2.8318253e+11 </wgt>
<wgt id='1051'> +2.8339678e+11 </wgt>
<wgt id='1052'> +2.8415062e+11 </wgt>
<wgt id='1053'> +2.8155989e+11 </wgt>
<wgt id='1054'> +2.8383082e+11 </wgt>
<wgt id='1055'> +2.8210349e+11 </wgt>
<wgt id='1056'> +2.8205672e+11 </wgt>
<wgt id='1057'> +2.8271876e+11 </wgt>
<wgt id='1058'> +2.8258121e+11 </wgt>
<wgt id='1059'> +2.8554838e+11 </wgt>
<wgt id='1060'> +2.8372023e+11 </wgt>
<wgt id='1061'> +2.8398667e+11 </wgt>
<wgt id='1062'> +2.8428282e+11 </wgt>
<wgt id='1063'> +2.8471988e+11 </wgt>
<wgt id='1064'> +2.8408874e+11 </wgt>
<wgt id='1065'> +2.8484003e+11 </wgt>
<wgt id='1066'> +2.8152806e+11 </wgt>
<wgt id='1067'> +2.8240794e+11 </wgt>
<wgt id='1068'> +2.8389063e+11 </wgt>
<wgt id='1069'> +2.8252776e+11 </wgt>
<wgt id='1070'> +2.8410208e+11 </wgt>
<wgt id='1071'> +2.8264203e+11 </wgt>
<wgt id='1072'> +2.8367160e+11 </wgt>
<wgt id='1073'> +2.8231888e+11 </wgt>
<wgt id='1074'> +2.8247640e+11 </wgt>
<wgt id='1075'> +2.8383241e+11 </wgt>
<wgt id='1076'> +2.8169968e+11 </wgt>
<wgt id='1077'> +2.8202445e+11 </wgt>
<wgt id='1078'> +2.8405696e+11 </wgt>
<wgt id='1079'> +2.8225162e+11 </wgt>
<wgt id='1080'> +2.8299993e+11 </wgt>
<wgt id='1081'> +2.8304152e+11 </wgt>
<wgt id='1082'> +2.8236298e+11 </wgt>
<wgt id='1083'> +2.8447378e+11 </wgt>
<wgt id='1084'> +2.8402887e+11 </wgt>
<wgt id='1085'> +2.8264713e+11 </wgt>
<wgt id='1086'> +2.8350908e+11 </wgt>
<wgt id='1087'> +2.8346801e+11 </wgt>
<wgt id='1088'> +2.8291635e+11 </wgt>
<wgt id='1089'> +2.8247971e+11 </wgt>
<wgt id='1090'> +2.8406592e+11 </wgt>
<wgt id='1091'> +2.8361997e+11 </wgt>
<wgt id='1092'> +2.8361760e+11 </wgt>
<wgt id='1093'> +2.8348938e+11 </wgt>
<wgt id='1094'> +2.8220331e+11 </wgt>
<wgt id='1095'> +2.8368041e+11 </wgt>
<wgt id='1096'> +2.8340586e+11 </wgt>
<wgt id='1097'> +2.8282131e+11 </wgt>
<wgt id='1098'> +2.8319006e+11 </wgt>
<wgt id='1099'> +2.8323557e+11 </wgt>
<wgt id='1100'> +2.8402288e+11 </wgt>
<wgt id='1101'> +2.8348141e+11 </wgt>
<wgt id='1102'> +2.8333016e+11 </wgt>
<wgt id='1103'> +2.8267658e+11 </wgt>
<wgt id='1104'> +2.8332210e+11 </wgt>
<wgt id='1105'> +2.8351001e+11 </wgt>
<wgt id='1106'> +2.8380257e+11 </wgt>
<wgt id='1107'> +2.8367803e+11 </wgt>
<wgt id='1108'> +2.8321125e+11 </wgt>
<wgt id='1109'> +2.8328814e+11 </wgt>
<wgt id='1110'> +2.8363585e+11 </wgt>
<wgt id='1111'> +2.8371932e+11 </wgt>
<wgt id='1112'> +2.8333021e+11 </wgt>
<wgt id='1113'> +2.8378206e+11 </wgt>
<wgt id='1114'> +2.8313778e+11 </wgt>
<wgt id='1115'> +2.8294158e+11 </wgt>
<wgt id='1116'> +2.8413327e+11 </wgt>
<wgt id='1117'> +2.8335525e+11 </wgt>
<wgt id='1118'> +2.8377923e+11 </wgt>
<wgt id='1119'> +2.8301608e+11 </wgt>
<wgt id='1120'> +2.8303057e+11 </wgt>
<wgt id='1121'> +2.8349686e+11 </wgt>
<wgt id='1122'> +2.8304802e+11 </wgt>
<wgt id='1123'> +2.8337173e+11 </wgt>
<wgt id='1124'> +2.8349254e+11 </wgt>
<wgt id='1125'> +2.8363170e+11 </wgt>
<wgt id='1126'> +2.8356129e+11 </wgt>
<wgt id='1127'> +2.8328939e+11 </wgt>
<wgt id='1128'> +2.8336070e+11 </wgt>
<wgt id='1129'> +2.8324900e+11 </wgt>
<wgt id='1130'> +2.8345780e+11 </wgt>
<wgt id='1131'> +2.8397867e+11 </wgt>
<wgt id='1132'> +2.8331271e+11 </wgt>
<wgt id='1133'> +2.8358022e+11 </wgt>
<wgt id='1134'> +2.8340255e+11 </wgt>
<wgt id='1135'> +2.8346538e+11 </wgt>
<wgt id='1136'> +2.8330246e+11 </wgt>
<wgt id='1137'> +2.8319860e+11 </wgt>
<wgt id='1138'> +2.8358168e+11 </wgt>
<wgt id='1139'> +2.8354517e+11 </wgt>
<wgt id='1140'> +2.8371261e+11 </wgt>
<wgt id='1141'> +2.8316166e+11 </wgt>
<wgt id='1142'> +2.8348726e+11 </wgt>
<wgt id='1143'> +2.8363224e+11 </wgt>
<wgt id='1144'> +2.8332726e+11 </wgt>
<wgt id='1145'> +2.8359768e+11 </wgt>
<wgt id='1146'> +2.8350919e+11 </wgt>
<wgt id='1147'> +2.8349335e+11 </wgt>
<wgt id='1148'> +2.8343000e+11 </wgt>
<wgt id='1149'> +2.8343000e+11 </wgt>
<wgt id='1150'> +2.9627353e+11 </wgt>
<wgt id='1151'> +2.7636121e+11 </wgt>
<wgt id='1152'> +2.7219588e+11 </wgt>
<wgt id='1153'> +2.8558173e+11 </wgt>
<wgt id='1154'> +2.7931626e+11 </wgt>
<wgt id='1155'> +2.9634771e+11 </wgt>
<wgt id='1156'> +2.8004241e+11 </wgt>
<wgt id='1157'> +2.7587108e+11 </wgt>
<wgt id='1158'> +2.7708025e+11 </wgt>
<wgt id='1159'> +2.9684694e+11 </wgt>
<wgt id='1160'> +2.8543209e+11 </wgt>
<wgt id='1161'> +2.9228675e+11 </wgt>
<wgt id='1162'> +2.8684622e+11 </wgt>
<wgt id='1163'> +2.8724160e+11 </wgt>
<wgt id='1164'> +2.7449861e+11 </wgt>
<wgt id='1165'> +2.7728193e+11 </wgt>
<wgt id='1166'> +2.8336152e+11 </wgt>
<wgt id='1167'> +2.7841638e+11 </wgt>
<wgt id='1168'> +2.7331396e+11 </wgt>
<wgt id='1169'> +2.7634895e+11 </wgt>
<wgt id='1170'> +2.8477723e+11 </wgt>
<wgt id='1171'> +2.7363649e+11 </wgt>
<wgt id='1172'> +2.7323269e+11 </wgt>
<wgt id='1173'> +2.8609398e+11 </wgt>
<wgt id='1174'> +2.7687468e+11 </wgt>
<wgt id='1175'> +2.7907154e+11 </wgt>
<wgt id='1176'> +2.8766645e+11 </wgt>
<wgt id='1177'> +2.7942581e+11 </wgt>
<wgt id='1178'> +2.8560852e+11 </wgt>
<wgt id='1179'> +2.8722306e+11 </wgt>
<wgt id='1180'> +2.7754222e+11 </wgt>
<wgt id='1181'> +2.9451362e+11 </wgt>
<wgt id='1182'> +2.8107921e+11 </wgt>
<wgt id='1183'> +2.8864000e+11 </wgt>
<wgt id='1184'> +2.7557962e+11 </wgt>
<wgt id='1185'> +2.9001900e+11 </wgt>
<wgt id='1186'> +2.7885978e+11 </wgt>
<wgt id='1187'> +2.8550660e+11 </wgt>
<wgt id='1188'> +2.9139824e+11 </wgt>
<wgt id='1189'> +2.8201011e+11 </wgt>
<wgt id='1190'> +2.8016028e+11 </wgt>
<wgt id='1191'> +2.9058445e+11 </wgt>
<wgt id='1192'> +2.8759094e+11 </wgt>
<wgt id='1193'> +2.8883551e+11 </wgt>
<wgt id='1194'> +2.7803565e+11 </wgt>
<wgt id='1195'> +2.8740520e+11 </wgt>
<wgt id='1196'> +2.9079646e+11 </wgt>
<wgt id='1197'> +2.9053397e+11 </wgt>
<wgt id='1198'> +2.8710978e+11 </wgt>
<wgt id='1199'> +2.8679801e+11 </wgt>
<wgt id='1200'> +2.9133635e+11 </wgt>
<wgt id='1201'> +2.8260044e+11 </wgt>
<wgt id='1202'> +2.8477308e+11 </wgt>
<wgt id='1203'> +2.8509360e+11 </wgt>
<wgt id='1204'> +2.7998403e+11 </wgt>
<wgt id='1205'> +2.8527800e+11 </wgt>
<wgt id='1206'> +2.8109704e+11 </wgt>
<wgt id='1207'> +2.9161478e+11 </wgt>
<wgt id='1208'> +2.7126802e+11 </wgt>
<wgt id='1209'> +2.8543777e+11 </wgt>
<wgt id='1210'> +2.8731043e+11 </wgt>
<wgt id='1211'> +2.8056567e+11 </wgt>
<wgt id='1212'> +2.8286052e+11 </wgt>
<wgt id='1213'> +2.8601687e+11 </wgt>
<wgt id='1214'> +2.7945071e+11 </wgt>
<wgt id='1215'> +2.7902718e+11 </wgt>
<wgt id='1216'> +2.7531708e+11 </wgt>
<wgt id='1217'> +2.8125620e+11 </wgt>
<wgt id='1218'> +2.8505768e+11 </wgt>
<wgt id='1219'> +2.9333592e+11 </wgt>
<wgt id='1220'> +2.8105083e+11 </wgt>
<wgt id='1221'> +2.7686266e+11 </wgt>
<wgt id='1222'> +2.7888113e+11 </wgt>
<wgt id='1223'> +2.7408427e+11 </wgt>
<wgt id='1224'> +2.8216925e+11 </wgt>
<wgt id='1225'> +2.8213955e+11 </wgt>
<wgt id='1226'> +2.8523358e+11 </wgt>
<wgt id='1227'> +2.8122335e+11 </wgt>
<wgt id='1228'> +2.8246839e+11 </wgt>
<wgt id='1229'> +2.9957605e+11 </wgt>
<wgt id='1230'> +2.8772833e+11 </wgt>
<wgt id='1231'> +2.7728193e+11 </wgt>
<wgt id='1232'> +2.8810546e+11 </wgt>
<wgt id='1233'> +2.7673346e+11 </wgt>
<wgt id='1234'> +2.7869199e+11 </wgt>
<wgt id='1235'> +3.0059212e+11 </wgt>
<wgt id='1236'> +2.7973392e+11 </wgt>
<wgt id='1237'> +2.9094936e+11 </wgt>
<wgt id='1238'> +2.7959767e+11 </wgt>
<wgt id='1239'> +2.8643008e+11 </wgt>
<wgt id='1240'> +2.7490623e+11 </wgt>
<wgt id='1241'> +2.8935244e+11 </wgt>
<wgt id='1242'> +2.8093027e+11 </wgt>
<wgt id='1243'> +2.8373067e+11 </wgt>
<wgt id='1244'> +2.9140496e+11 </wgt>
<wgt id='1245'> +2.7465208e+11 </wgt>
<wgt id='1246'> +3.0369052e+11 </wgt>
<wgt id='1247'> +2.8141016e+11 </wgt>
<wgt id='1248'> +2.7353226e+11 </wgt>
<wgt id='1249'> +2.7549443e+11 </wgt>
<wgt id='1250'> +2.9451089e+11 </wgt>
<wgt id='1251'> +3.0356107e+11 </wgt>
<wgt id='1252'> +2.8877122e+11 </wgt>
<wgt id='1253'> +2.9565299e+11 </wgt>
<wgt id='1254'> +2.9067703e+11 </wgt>
<wgt id='1255'> +3.0627061e+11 </wgt>
<wgt id='1256'> +3.0566516e+11 </wgt>
<wgt id='1257'> +3.0260611e+11 </wgt>
<wgt id='1258'> +2.9209781e+11 </wgt>
<wgt id='1259'> +3.0881352e+11 </wgt>
<wgt id='1260'> +3.3085630e+11 </wgt>
<wgt id='1261'> +3.1698802e+11 </wgt>
<wgt id='1262'> +2.9649306e+11 </wgt>
<wgt id='1263'> +3.0114121e+11 </wgt>
<wgt id='1264'> +3.0373725e+11 </wgt>
<wgt id='1265'> +2.9249142e+11 </wgt>
<wgt id='1266'> +3.0620994e+11 </wgt>
<wgt id='1267'> +3.5556744e+11 </wgt>
<wgt id='1268'> +2.8837822e+11 </wgt>
<wgt id='1269'> +2.8682502e+11 </wgt>
<wgt id='1270'> +3.0889913e+11 </wgt>
<wgt id='1271'> +2.6465770e+11 </wgt>
<wgt id='1272'> +2.9465339e+11 </wgt>
<wgt id='1273'> +2.9140738e+11 </wgt>
<wgt id='1274'> +2.8781361e+11 </wgt>
<wgt id='1275'> +2.9296385e+11 </wgt>
<wgt id='1276'> +3.0642729e+11 </wgt>
<wgt id='1277'> +3.0187878e+11 </wgt>
<wgt id='1278'> +3.0172289e+11 </wgt>
<wgt id='1279'> +2.7931660e+11 </wgt>
<wgt id='1280'> +2.8629691e+11 </wgt>
<wgt id='1281'> +2.8569910e+11 </wgt>
<wgt id='1282'> +2.9496471e+11 </wgt>
<wgt id='1283'> +3.1535535e+11 </wgt>
<wgt id='1284'> +3.0680119e+11 </wgt>
<wgt id='1285'> +3.0824697e+11 </wgt>
<wgt id='1286'> +3.3312173e+11 </wgt>
<wgt id='1287'> +3.1585844e+11 </wgt>
<wgt id='1288'> +3.4145914e+11 </wgt>
<wgt id='1289'> +3.1753133e+11 </wgt>
<wgt id='1290'> +3.1393313e+11 </wgt>
<wgt id='1291'> +2.7951620e+11 </wgt>
<wgt id='1292'> +3.0557113e+11 </wgt>
<wgt id='1293'> +3.0443870e+11 </wgt>
<wgt id='1294'> +3.2934060e+11 </wgt>
<wgt id='1295'> +3.1246718e+11 </wgt>
<wgt id='1296'> +3.3578869e+11 </wgt>
<wgt id='1297'> +2.8921310e+11 </wgt>
<wgt id='1298'> +2.9049737e+11 </wgt>
<wgt id='1299'> +3.0620477e+11 </wgt>
<wgt id='1300'> +2.7923290e+11 </wgt>
<wgt id='1301'> +2.8028069e+11 </wgt>
<wgt id='1302'> +2.8206598e+11 </wgt>
<wgt id='1303'> +3.0626058e+11 </wgt>
<wgt id='1304'> +3.3283676e+11 </wgt>
<wgt id='1305'> +2.9847376e+11 </wgt>
<wgt id='1306'> +3.0687661e+11 </wgt>
<wgt id='1307'> +2.8420903e+11 </wgt>
<wgt id='1308'> +3.3355626e+11 </wgt>
<wgt id='1309'> +3.0340378e+11 </wgt>
<wgt id='1310'> +3.0489386e+11 </wgt>
<wgt id='1311'> +2.9630558e+11 </wgt>
<wgt id='1312'> +3.2080787e+11 </wgt>
<wgt id='1313'> +3.0719920e+11 </wgt>
<wgt id='1314'> +2.9123167e+11 </wgt>
<wgt id='1315'> +2.8856272e+11 </wgt>
<wgt id='1316'> +3.0047806e+11 </wgt>
<wgt id='1317'> +3.1779225e+11 </wgt>
<wgt id='1318'> +2.9226299e+11 </wgt>
<wgt id='1319'> +2.9759349e+11 </wgt>
<wgt id='1320'> +3.2043691e+11 </wgt>
<wgt id='1321'> +3.0601388e+11 </wgt>
<wgt id='1322'> +3.1727106e+11 </wgt>
<wgt id='1323'> +2.8607087e+11 </wgt>
<wgt id='1324'> +3.1219516e+11 </wgt>
<wgt id='1325'> +3.1437219e+11 </wgt>
<wgt id='1326'> +3.1139442e+11 </wgt>
<wgt id='1327'> +3.1821549e+11 </wgt>
<wgt id='1328'> +2.9980915e+11 </wgt>
<wgt id='1329'> +2.9801280e+11 </wgt>
<wgt id='1330'> +2.8378863e+11 </wgt>
<wgt id='1331'> +3.2524559e+11 </wgt>
<wgt id='1332'> +3.0197090e+11 </wgt>
<wgt id='1333'> +3.0293622e+11 </wgt>
<wgt id='1334'> +3.2147605e+11 </wgt>
<wgt id='1335'> +2.9160654e+11 </wgt>
<wgt id='1336'> +3.2171116e+11 </wgt>
<wgt id='1337'> +3.1035854e+11 </wgt>
<wgt id='1338'> +2.8664210e+11 </wgt>
<wgt id='1339'> +3.1284840e+11 </wgt>
<wgt id='1340'> +3.1444592e+11 </wgt>
<wgt id='1341'> +3.3254131e+11 </wgt>
<wgt id='1342'> +2.9946818e+11 </wgt>
<wgt id='1343'> +3.0955559e+11 </wgt>
<wgt id='1344'> +3.2112174e+11 </wgt>
<wgt id='1345'> +2.5838183e+11 </wgt>
<wgt id='1346'> +3.0622936e+11 </wgt>
<wgt id='1347'> +2.9592302e+11 </wgt>
<wgt id='1348'> +2.9182996e+11 </wgt>
<wgt id='1349'> +2.8915538e+11 </wgt>
<wgt id='1350'> +3.1458593e+11 </wgt>
<wgt id='1351'> +2.9033826e+11 </wgt>
<wgt id='1352'> +3.0574221e+11 </wgt>
<wgt id='1353'> +3.0327691e+11 </wgt>
<wgt id='1354'> +3.1216598e+11 </wgt>
<wgt id='1355'> +2.8028320e+11 </wgt>
<wgt id='1356'> +2.8281019e+11 </wgt>
<wgt id='1357'> +2.8103903e+11 </wgt>
<wgt id='1358'> +2.7890851e+11 </wgt>
<wgt id='1359'> +2.7894491e+11 </wgt>
<wgt id='1360'> +2.7573299e+11 </wgt>
<wgt id='1361'> +2.7872672e+11 </wgt>
<wgt id='1362'> +2.8874175e+11 </wgt>
<wgt id='1363'> +2.7937673e+11 </wgt>
<wgt id='1364'> +2.8625920e+11 </wgt>
<wgt id='1365'> +2.7820404e+11 </wgt>
<wgt id='1366'> +2.7632146e+11 </wgt>
<wgt id='1367'> +2.7916540e+11 </wgt>
<wgt id='1368'> +2.8123633e+11 </wgt>
<wgt id='1369'> +2.8370000e+11 </wgt>
<wgt id='1370'> +2.7604755e+11 </wgt>
<wgt id='1371'> +2.8037046e+11 </wgt>
<wgt id='1372'> +2.8020998e+11 </wgt>
<wgt id='1373'> +2.8384230e+11 </wgt>
<wgt id='1374'> +2.7427800e+11 </wgt>
<wgt id='1375'> +2.8197084e+11 </wgt>
<wgt id='1376'> +2.7927862e+11 </wgt>
<wgt id='1377'> +2.8053812e+11 </wgt>
<wgt id='1378'> +2.8163338e+11 </wgt>
<wgt id='1379'> +2.7860998e+11 </wgt>
<wgt id='1380'> +2.7769856e+11 </wgt>
<wgt id='1381'> +2.8441096e+11 </wgt>
<wgt id='1382'> +2.7861163e+11 </wgt>
<wgt id='1383'> +2.7719180e+11 </wgt>
<wgt id='1384'> +2.7521888e+11 </wgt>
<wgt id='1385'> +2.7485452e+11 </wgt>
<wgt id='1386'> +2.7749317e+11 </wgt>
<wgt id='1387'> +2.7845101e+11 </wgt>
<wgt id='1388'> +2.7572648e+11 </wgt>
<wgt id='1389'> +2.7860285e+11 </wgt>
<wgt id='1390'> +2.8322577e+11 </wgt>
<wgt id='1391'> +2.7993565e+11 </wgt>
<wgt id='1392'> +2.7573518e+11 </wgt>
<wgt id='1393'> +2.8207912e+11 </wgt>
<wgt id='1394'> +2.7984331e+11 </wgt>
<wgt id='1395'> +2.7495252e+11 </wgt>
<wgt id='1396'> +2.8056594e+11 </wgt>
<wgt id='1397'> +2.8070995e+11 </wgt>
<wgt id='1398'> +2.8473147e+11 </wgt>
<wgt id='1399'> +2.7852003e+11 </wgt>
<wgt id='1400'> +2.7472629e+11 </wgt>
<wgt id='1401'> +2.8119693e+11 </wgt>
<wgt id='1402'> +2.8257966e+11 </wgt>
<wgt id='1403'> +2.8985469e+11 </wgt>
<wgt id='1404'> +2.8421466e+11 </wgt>
<wgt id='1405'> +2.8795943e+11 </wgt>
<wgt id='1406'> +2.8406859e+11 </wgt>
<wgt id='1407'> +2.8136118e+11 </wgt>
<wgt id='1408'> +2.8812901e+11 </wgt>
<wgt id='1409'> +2.7490467e+11 </wgt>
<wgt id='1410'> +2.7232494e+11 </wgt>
<wgt id='1411'> +2.8000342e+11 </wgt>
<wgt id='1412'> +2.7974903e+11 </wgt>
<wgt id='1413'> +2.8344261e+11 </wgt>
<wgt id='1414'> +2.8283253e+11 </wgt>
<wgt id='1415'> +2.7931943e+11 </wgt>
<wgt id='1416'> +2.8125968e+11 </wgt>
<wgt id='1417'> +2.7817044e+11 </wgt>
<wgt id='1418'> +2.7904532e+11 </wgt>
<wgt id='1419'> +2.8355593e+11 </wgt>
<wgt id='1420'> +2.7480353e+11 </wgt>
<wgt id='1421'> +2.8714863e+11 </wgt>
<wgt id='1422'> +2.7304301e+11 </wgt>
<wgt id='1423'> +2.8402680e+11 </wgt>
<wgt id='1424'> +2.8050764e+11 </wgt>
<wgt id='1425'> +2.8059118e+11 </wgt>
<wgt id='1426'> +2.8260301e+11 </wgt>
<wgt id='1427'> +2.7860700e+11 </wgt>
<wgt id='1428'> +2.7836303e+11 </wgt>
<wgt id='1429'> +2.8132956e+11 </wgt>
<wgt id='1430'> +2.7695644e+11 </wgt>
<wgt id='1431'> +2.7692320e+11 </wgt>
<wgt id='1432'> +2.7642348e+11 </wgt>
<wgt id='1433'> +2.7528718e+11 </wgt>
<wgt id='1434'> +2.8713431e+11 </wgt>
<wgt id='1435'> +2.7966251e+11 </wgt>
<wgt id='1436'> +2.8425517e+11 </wgt>
<wgt id='1437'> +2.7868284e+11 </wgt>
<wgt id='1438'> +2.8008680e+11 </wgt>
<wgt id='1439'> +2.8714013e+11 </wgt>
<wgt id='1440'> +2.8094072e+11 </wgt>
<wgt id='1441'> +2.7618555e+11 </wgt>
<wgt id='1442'> +2.8281177e+11 </wgt>
<wgt id='1443'> +2.7652249e+11 </wgt>
<wgt id='1444'> +2.8645262e+11 </wgt>
<wgt id='1445'> +2.7928062e+11 </wgt>
<wgt id='1446'> +2.8886727e+11 </wgt>
<wgt id='1447'> +2.8005726e+11 </wgt>
<wgt id='1448'> +2.8294265e+11 </wgt>
<wgt id='1449'> +2.8339222e+11 </wgt>
<wgt id='1450'> +2.7959359e+11 </wgt>
<wgt id='1451'> +2.8039667e+11 </wgt>
<wgt id='1452'> +2.8242252e+11 </wgt>
<wgt id='1453'> +2.8166845e+11 </wgt>
<wgt id='1454'> +2.7139485e+11 </wgt>
<wgt id='1455'> +2.7868319e+11 </wgt>
<wgt id='1456'> +2.7867868e+11 </wgt>
<wgt id='1457'> +2.7998453e+11 </wgt>
<wgt id='1458'> +2.8694837e+11 </wgt>
<wgt id='1459'> +3.1268780e+11 </wgt>
<wgt id='1460'> +3.0743559e+11 </wgt>
<wgt id='1461'> +3.6760853e+11 </wgt>
<wgt id='1462'> +3.0145957e+11 </wgt>
<wgt id='1463'> +3.0167968e+11 </wgt>
<wgt id='1464'> +3.0117728e+11 </wgt>
<wgt id='1465'> +3.0152737e+11 </wgt>
<wgt id='1466'> +3.0139764e+11 </wgt>
<wgt id='1467'> +3.0157230e+11 </wgt>
<wgt id='1468'> +3.0127459e+11 </wgt>
<wgt id='1469'> +3.0102806e+11 </wgt>
<wgt id='1470'> +3.0181001e+11 </wgt>
<wgt id='1471'> +3.0190762e+11 </wgt>
<wgt id='1472'> +3.0099807e+11 </wgt>
<wgt id='1473'> +3.0266076e+11 </wgt>
<wgt id='1474'> +3.0030581e+11 </wgt>
<wgt id='1475'> +3.0259678e+11 </wgt>
<wgt id='1476'> +3.0065346e+11 </wgt>
<wgt id='1477'> +3.0091333e+11 </wgt>
<wgt id='1478'> +3.0273586e+11 </wgt>
<wgt id='1479'> +3.0113715e+11 </wgt>
<wgt id='1480'> +3.0168961e+11 </wgt>
<wgt id='1481'> +3.0089709e+11 </wgt>
<wgt id='1482'> +3.0222062e+11 </wgt>
<wgt id='1483'> +3.0151739e+11 </wgt>
<wgt id='1484'> +3.0138134e+11 </wgt>
<wgt id='1485'> +3.0166980e+11 </wgt>
<wgt id='1486'> +3.0095321e+11 </wgt>
<wgt id='1487'> +3.0174525e+11 </wgt>
<wgt id='1488'> +3.0110299e+11 </wgt>
<wgt id='1489'> +3.0108280e+11 </wgt>
<wgt id='1490'> +3.0248145e+11 </wgt>
<wgt id='1491'> +3.0650846e+11 </wgt>
<wgt id='1492'> +2.9864682e+11 </wgt>
<wgt id='1493'> +2.9777901e+11 </wgt>
<wgt id='1494'> +3.1300425e+11 </wgt>
<wgt id='1495'> +3.0062429e+11 </wgt>
<wgt id='1496'> +3.0235668e+11 </wgt>
<wgt id='1497'> +3.0167036e+11 </wgt>
<wgt id='1498'> +3.0117176e+11 </wgt>
<wgt id='1499'> +3.0356102e+11 </wgt>
<wgt id='1500'> +3.0031230e+11 </wgt>
<wgt id='1501'> +3.0180484e+11 </wgt>
<wgt id='1502'> +3.0055166e+11 </wgt>
<wgt id='1503'> +2.9719786e+11 </wgt>
<wgt id='1504'> +3.0621955e+11 </wgt>
<wgt id='1505'> +3.0214639e+11 </wgt>
<wgt id='1506'> +3.0078158e+11 </wgt>
<wgt id='1507'> +3.0474711e+11 </wgt>
<wgt id='1508'> +2.9629454e+11 </wgt>
<wgt id='1509'> +3.0224344e+11 </wgt>
<wgt id='1510'> +2.9807971e+11 </wgt>
<wgt id='1511'> +3.0269086e+11 </wgt>
<wgt id='1512'> +3.0109366e+11 </wgt>
<wgt id='1513'> +3.0128759e+11 </wgt>
<wgt id='1514'> +3.0166438e+11 </wgt>
<wgt id='1515'> +3.0519961e+11 </wgt>
<wgt id='1516'> +3.0104853e+11 </wgt>
<wgt id='1517'> +3.0093308e+11 </wgt>
<wgt id='1518'> +3.0217533e+11 </wgt>
<wgt id='1519'> +2.9947110e+11 </wgt>
<wgt id='1520'> +3.0286814e+11 </wgt>
<wgt id='1521'> +3.0023413e+11 </wgt>
<wgt id='1522'> +3.0215121e+11 </wgt>
<wgt id='1523'> +3.0264968e+11 </wgt>
<wgt id='1524'> +3.0312140e+11 </wgt>
<wgt id='1525'> +3.0219432e+11 </wgt>
<wgt id='1526'> +3.0292933e+11 </wgt>
<wgt id='1527'> +3.0145957e+11 </wgt>
<wgt id='1528'> +3.0035261e+11 </wgt>
<wgt id='1529'> +3.0227636e+11 </wgt>
<wgt id='1530'> +2.9727304e+11 </wgt>
<wgt id='1531'> +3.0449686e+11 </wgt>
<wgt id='1532'> +3.0388628e+11 </wgt>
<wgt id='1533'> +2.9897272e+11 </wgt>
<wgt id='1534'> +3.0284752e+11 </wgt>
<wgt id='1535'> +3.0773748e+11 </wgt>
<wgt id='1536'> +3.0123407e+11 </wgt>
<wgt id='1537'> +3.0611837e+11 </wgt>
<wgt id='1538'> +3.0051065e+11 </wgt>
<wgt id='1539'> +3.0964896e+11 </wgt>
<wgt id='1540'> +3.0560536e+11 </wgt>
<wgt id='1541'> +3.0612625e+11 </wgt>
<wgt id='1542'> +3.0464001e+11 </wgt>
<wgt id='1543'> +3.0630654e+11 </wgt>
<wgt id='1544'> +3.0282576e+11 </wgt>
<wgt id='1545'> +3.0247028e+11 </wgt>
<wgt id='1546'> +3.0070437e+11 </wgt>
<wgt id='1547'> +3.0678883e+11 </wgt>
<wgt id='1548'> +3.0326084e+11 </wgt>
<wgt id='1549'> +3.0095609e+11 </wgt>
<wgt id='1550'> +3.0660634e+11 </wgt>
<wgt id='1551'> +3.0511074e+11 </wgt>
<wgt id='1552'> +3.0458374e+11 </wgt>
<wgt id='1553'> +3.0923654e+11 </wgt>
<wgt id='1554'> +3.0471723e+11 </wgt>
<wgt id='1555'> +3.0548409e+11 </wgt>
<wgt id='1556'> +3.0655029e+11 </wgt>
<wgt id='1557'> +3.0411487e+11 </wgt>
<wgt id='1558'> +3.0485522e+11 </wgt>
<wgt id='1559'> +3.0186321e+11 </wgt>
<wgt id='1560'> +3.0339224e+11 </wgt>
<wgt id='1561'> +3.0242485e+11 </wgt>
<wgt id='1562'> +3.0272439e+11 </wgt>
<wgt id='1563'> +3.0476508e+11 </wgt>
<wgt id='1564'> +3.0420897e+11 </wgt>
<wgt id='1565'> +3.0741393e+11 </wgt>
<wgt id='1566'> +3.0450011e+11 </wgt>
<wgt id='1567'> +3.0586051e+11 </wgt>
<wgt id='1568'> +3.0434830e+11 </wgt>
<wgt id='1569'> +3.0387337e+11 </wgt>
<wgt id='1570'> +3.1112830e+11 </wgt>
<wgt id='1571'> +3.0457381e+11 </wgt>
<wgt id='1572'> +3.0624434e+11 </wgt>
<wgt id='1573'> +3.0877497e+11 </wgt>
<wgt id='1574'> +2.5426799e+11 </wgt>
<wgt id='1575'> +2.5433461e+11 </wgt>
<wgt id='1576'> +2.5419946e+11 </wgt>
<wgt id='1577'> +2.5428592e+11 </wgt>
<wgt id='1578'> +2.5485428e+11 </wgt>
<wgt id='1579'> +2.5506125e+11 </wgt>
<wgt id='1580'> +2.5482706e+11 </wgt>
<wgt id='1581'> +2.5379636e+11 </wgt>
<wgt id='1582'> +2.5352932e+11 </wgt>
<wgt id='1583'> +2.5380573e+11 </wgt>
<wgt id='1584'> +2.5483170e+11 </wgt>
<wgt id='1585'> +2.5451942e+11 </wgt>
<wgt id='1586'> +2.5347200e+11 </wgt>
<wgt id='1587'> +2.5361898e+11 </wgt>
<wgt id='1588'> +2.5317874e+11 </wgt>
<wgt id='1589'> +2.5394490e+11 </wgt>
<wgt id='1590'> +2.5411761e+11 </wgt>
<wgt id='1591'> +2.5434901e+11 </wgt>
<wgt id='1592'> +2.5329246e+11 </wgt>
<wgt id='1593'> +2.5317082e+11 </wgt>
<wgt id='1594'> +2.5533470e+11 </wgt>
<wgt id='1595'> +2.5172556e+11 </wgt>
<wgt id='1596'> +2.5853833e+11 </wgt>
<wgt id='1597'> +2.5608836e+11 </wgt>
<wgt id='1598'> +2.5620860e+11 </wgt>
<wgt id='1599'> +2.5124193e+11 </wgt>
<wgt id='1600'> +2.5919813e+11 </wgt>
<wgt id='1601'> +2.5642843e+11 </wgt>
<wgt id='1602'> +2.5432446e+11 </wgt>
<wgt id='1603'> +2.6834002e+11 </wgt>
<wgt id='1604'> +2.5445091e+11 </wgt>
</rwgt>
</event>
<event>
 9      1 +2.8343000e+11 1.40002100e+03 7.81738600e-03 7.88879900e-02
       21 -1    0    0  504  503 +0.0000000000e+00 +0.0000000000e+00 +6.2762632516e+02 6.2762632516e+02 0.0000000000e+00 0.0000e+00 1.0000e+00
       21 -1    0    0  503  504 -0.0000000000e+00 -0.0000000000e+00 -7.8074248473e+02 7.8074248473e+02 0.0000000000e+00 0.0000e+00 1.0000e+00
       45  2    1    2    0    0 +0.0000000000e+00 +0.0000000000e+00 -1.5311615957e+02 1.4083688099e+03 1.4000207664e+03 0.0000e+00 0.0000e+00
       25  2    3    3    0    0 +4.1896561580e+02 +3.1745911821e+02 +3.7510257460e+02 6.5775051584e+02 1.2498528180e+02 0.0000e+00 0.0000e+00
       35  2    3    3    0    0 -4.1896561580e+02 -3.1745911821e+02 -5.2821873416e+02 7.5061829405e+02 9.0001740464e+01 0.0000e+00 0.0000e+00
        5  1    5    5  501    0 -1.9820414988e+02 -9.7703265311e+01 -1.9955625241e+02 2.9777721329e+02 4.2140000000e+00 0.0000e+00 1.0000e+00
       -5  1    5    5    0  501 -2.2076146592e+02 -2.1975585289e+02 -3.2866248175e+02 4.5284108076e+02 4.2140000000e+00 0.0000e+00 1.0000e+00
        5  1    4    4  502    0 +3.9621865279e+01 +3.9213613851e+01 -2.3402063165e-01 5.5905386870e+01 4.2140000000e+00 0.0000e+00 -1.0000e+00
       -5  1    4    4    0  502 +3.7934375052e+02 +2.7824550435e+02 +3.7533659523e+02 6.0184512897e+02 4.2140000000e+00 0.0000e+00 -1.0000e+00
<mgrwt>
<rscale>  0 0.14000208E+04</rscale>
<asrwt>0</asrwt>
<pdfrwt beam="1">  1       21 0.96557896E-01 0.14000208E+04</pdfrwt>
<pdfrwt beam="2">  1       21 0.12011423E+00 0.14000208E+04</pdfrwt>
<totfact> 0.35516453E+02</totfact>
</mgrwt>
<rwgt>
<wgt id='1001'> +2.8343000e+11 </wgt>
<wgt id='1002'> +2.9646427e+11 </wgt>
<wgt id='1003'> +2.9646241e+11 </wgt>
<wgt id='1004'> +3.3336767e+11 </wgt>
<wgt id='1005'> +2.8343000e+11 </wgt>
<wgt id='1006'> +2.8343000e+11 </wgt>
<wgt id='1007'> +2.9646427e+11 </wgt>
<wgt id='1008'> +2.9646241e+11 </wgt>
<wgt id='1009'> +3.3336767e+11 </wgt>
<wgt id='1010'> +2.8343000e+11 </wgt>
<wgt id='1011'> +2.8343000e+11 </wgt>
<wgt id='1012'> +2.9646427e+11 </wgt>
<wgt id='1013'> +2.9646241e+11 </wgt>
<wgt id='1014'> +3.3336767e+11 </wgt>
<wgt id='1015'> +2.8343000e+11 </wgt>
<wgt id='1016'> +2.5466360e+11 </wgt>
<wgt id='1017'> +2.6567195e+11 </wgt>
<wgt id='1018'> +2.6567039e+11 </wgt>
<wgt id='1019'> +2.9646241e+11 </wgt>
<wgt id='1020'> +2.5466360e+11 </wgt>
<wgt id='1021'> +2.5466360e+11 </wgt>
<wgt id='1022'> +2.6567195e+11 </wgt>
<wgt id='1023'> +2.6567039e+11 </wgt>
<wgt id='1024'> +2.9646241e+11 </wgt>
<wgt id='1025'> +2.5466360e+11 </wgt>
<wgt id='1026'> +2.5466360e+11 </wgt>
<wgt id='1027'> +2.6567195e+11 </wgt>
<wgt id='1028'> +2.6567039e+11 </wgt>
<wgt id='1029'> +2.9646241e+11 </wgt>
<wgt id='1030'> +2.5466360e+11 </wgt>
<wgt id='1031'> +3.1771384e+11 </wgt>
<wgt id='1032'> +3.3336989e+11 </wgt>
<wgt id='1033'> +3.3336767e+11 </wgt>
<wgt id='1034'> +3.7794431e+11 </wgt>
<wgt id='1035'> +3.1771384e+11 </wgt>
<wgt id='1036'> +3.1771384e+11 </wgt>
<wgt id='1037'> +3.3336989e+11 </wgt>
<wgt id='1038'> +3.3336767e+11 </wgt>
<wgt id='1039'> +3.7794431e+11 </wgt>
<wgt id='1040'> +3.1771384e+11 </wgt>
<wgt id='1041'> +3.1771384e+11 </wgt>
<wgt id='1042'> +3.3336989e+11 </wgt>
<wgt id='1043'> +3.3336767e+11 </wgt>
<wgt id='1044'> +3.7794431e+11 </wgt>
<wgt id='1045'> +3.1771384e+11 </wgt>
<wgt id='1046'> +2.8343000e+11 </wgt>
<wgt id='1047'> +2.8343000e+11 </wgt>
<wgt id='1048'> +2.8343000e+11 </wgt>
<wgt id='1049'> +2.8229773e+11 </wgt>
<wgt id='1050'> +2.8306367e+11 </wgt>
<wgt id='1051'> +2.8371816e+11 </wgt>
<wgt id='1052'> +2.8421973e+11 </wgt>
<wgt id='1053'> +2.8188418e+11 </wgt>
<wgt id='1054'> +2.8387371e+11 </wgt>
<wgt id='1055'> +2.8225159e+11 </wgt>
<wgt id='1056'> +2.8183505e+11 </wgt>
<wgt id='1057'> +2.8418251e+11 </wgt>
<wgt id='1058'> +2.8304446e+11 </wgt>
<wgt id='1059'> +2.8540561e+11 </wgt>
<wgt id='1060'> +2.8365882e+11 </wgt>
<wgt id='1061'> +2.8418822e+11 </wgt>
<wgt id='1062'> +2.8402347e+11 </wgt>
<wgt id='1063'> +2.8369667e+11 </wgt>
<wgt id='1064'> +2.8465971e+11 </wgt>
<wgt id='1065'> +2.8486020e+11 </wgt>
<wgt id='1066'> +2.8193944e+11 </wgt>
<wgt id='1067'> +2.7979292e+11 </wgt>
<wgt id='1068'> +2.8377866e+11 </wgt>
<wgt id='1069'> +2.8275784e+11 </wgt>
<wgt id='1070'> +2.8346078e+11 </wgt>
<wgt id='1071'> +2.8481442e+11 </wgt>
<wgt id='1072'> +2.8115291e+11 </wgt>
<wgt id='1073'> +2.8409364e+11 </wgt>
<wgt id='1074'> +2.8309287e+11 </wgt>
<wgt id='1075'> +2.8442121e+11 </wgt>
<wgt id='1076'> +2.8312254e+11 </wgt>
<wgt id='1077'> +2.8290284e+11 </wgt>
<wgt id='1078'> +2.8410193e+11 </wgt>
<wgt id='1079'> +2.8181382e+11 </wgt>
<wgt id='1080'> +2.8280051e+11 </wgt>
<wgt id='1081'> +2.8301139e+11 </wgt>
<wgt id='1082'> +2.8205266e+11 </wgt>
<wgt id='1083'> +2.8398721e+11 </wgt>
<wgt id='1084'> +2.8406824e+11 </wgt>
<wgt id='1085'> +2.8285058e+11 </wgt>
<wgt id='1086'> +2.8282421e+11 </wgt>
<wgt id='1087'> +2.8308345e+11 </wgt>
<wgt id='1088'> +2.8294210e+11 </wgt>
<wgt id='1089'> +2.8279822e+11 </wgt>
<wgt id='1090'> +2.8413665e+11 </wgt>
<wgt id='1091'> +2.8349829e+11 </wgt>
<wgt id='1092'> +2.8368856e+11 </wgt>
<wgt id='1093'> +2.8332150e+11 </wgt>
<wgt id='1094'> +2.8289545e+11 </wgt>
<wgt id='1095'> +2.8354843e+11 </wgt>
<wgt id='1096'> +2.8337353e+11 </wgt>
<wgt id='1097'> +2.8303195e+11 </wgt>
<wgt id='1098'> +2.8307683e+11 </wgt>
<wgt id='1099'> +2.8322240e+11 </wgt>
<wgt id='1100'> +2.8401747e+11 </wgt>
<wgt id='1101'> +2.8340803e+11 </wgt>
<wgt id='1102'> +2.8328204e+11 </wgt>
<wgt id='1103'> +2.8310606e+11 </wgt>
<wgt id='1104'> +2.8310439e+11 </wgt>
<wgt id='1105'> +2.8354059e+11 </wgt>
<wgt id='1106'> +2.8375923e+11 </wgt>
<wgt id='1107'> +2.8333400e+11 </wgt>
<wgt id='1108'> +2.8333865e+11 </wgt>
<wgt id='1109'> +2.8323471e+11 </wgt>
<wgt id='1110'> +2.8376011e+11 </wgt>
<wgt id='1111'> +2.8356012e+11 </wgt>
<wgt id='1112'> +2.8339831e+11 </wgt>
<wgt id='1113'> +2.8373986e+11 </wgt>
<wgt id='1114'> +2.8311260e+11 </wgt>
<wgt id='1115'> +2.8325096e+11 </wgt>
<wgt id='1116'> +2.8374088e+11 </wgt>
<wgt id='1117'> +2.8337148e+11 </wgt>
<wgt id='1118'> +2.8353186e+11 </wgt>
<wgt id='1119'> +2.8325275e+11 </wgt>
<wgt id='1120'> +2.8328231e+11 </wgt>
<wgt id='1121'> +2.8349337e+11 </wgt>
<wgt id='1122'> +2.8322758e+11 </wgt>
<wgt id='1123'> +2.8337450e+11 </wgt>
<wgt id='1124'> +2.8334407e+11 </wgt>
<wgt id='1125'> +2.8358925e+11 </wgt>
<wgt id='1126'> +2.8353599e+11 </wgt>
<wgt id='1127'> +2.8332220e+11 </wgt>
<wgt id='1128'> +2.8347112e+11 </wgt>
<wgt id='1129'> +2.8338634e+11 </wgt>
<wgt id='1130'> +2.8346257e+11 </wgt>
<wgt id='1131'> +2.8369956e+11 </wgt>
<wgt id='1132'> +2.8335143e+11 </wgt>
<wgt id='1133'> +2.8350669e+11 </wgt>
<wgt id='1134'> +2.8340975e+11 </wgt>
<wgt id='1135'> +2.8346946e+11 </wgt>
<wgt id='1136'> +2.8339654e+11 </wgt>
<wgt id='1137'> +2.8328535e+11 </wgt>
<wgt id='1138'> +2.8354369e+11 </wgt>
<wgt id='1139'> +2.8346835e+11 </wgt>
<wgt id='1140'> +2.8364117e+11 </wgt>
<wgt id='1141'> +2.8330224e+11 </wgt>
<wgt id='1142'> +2.8350086e+11 </wgt>
<wgt id='1143'> +2.8359573e+11 </wgt>
<wgt id='1144'> +2.8334443e+11 </wgt>
<wgt id='1145'> +2.8355418e+11 </wgt>
<wgt id='1146'> +2.8341160e+11 </wgt>
<wgt id='1147'> +2.8347615e+11 </wgt>
<wgt id='1148'> +2.8343000e+11 </wgt>
<wgt id='1149'> +2.8343000e+11 </wgt>
<wgt id='1150'> +2.9151134e+11 </wgt>
<wgt id='1151'> +2.8107604e+11 </wgt>
<wgt id='1152'> +2.8506440e+11 </wgt>
<wgt id='1153'> +2.8764971e+11 </wgt>
<wgt id='1154'> +2.8728471e+11 </wgt>
<wgt id='1155'> +2.8852582e+11 </wgt>
<wgt id='1156'> +2.7658038e+11 </wgt>
<wgt id='1157'> +2.7654230e+11 </wgt>
<wgt id='1158'> +2.7761681e+11 </wgt>
<wgt id='1159'> +2.9636220e+11 </wgt>
<wgt id='1160'> +2.8169333e+11 </wgt>
<wgt id='1161'> +2.8552915e+11 </wgt>
<wgt id='1162'> +2.7666524e+11 </wgt>
<wgt id='1163'> +2.8680852e+11 </wgt>
<wgt id='1164'> +2.6767981e+11 </wgt>
<wgt id='1165'> +2.7924372e+11 </wgt>
<wgt id='1166'> +2.8494322e+11 </wgt>
<wgt id='1167'> +2.7984962e+11 </wgt>
<wgt id='1168'> +2.7647922e+11 </wgt>
<wgt id='1169'> +2.7594404e+11 </wgt>
<wgt id='1170'> +2.7630711e+11 </wgt>
<wgt id='1171'> +2.7343546e+11 </wgt>
<wgt id='1172'> +2.7747117e+11 </wgt>
<wgt id='1173'> +2.8788877e+11 </wgt>
<wgt id='1174'> +2.7956766e+11 </wgt>
<wgt id='1175'> +2.7532858e+11 </wgt>
<wgt id='1176'> +2.8637445e+11 </wgt>
<wgt id='1177'> +2.7919923e+11 </wgt>
<wgt id='1178'> +2.8313836e+11 </wgt>
<wgt id='1179'> +2.8030432e+11 </wgt>
<wgt id='1180'> +2.8414828e+11 </wgt>
<wgt id='1181'> +2.7680302e+11 </wgt>
<wgt id='1182'> +2.8156428e+11 </wgt>
<wgt id='1183'> +2.9556465e+11 </wgt>
<wgt id='1184'> +2.7672246e+11 </wgt>
<wgt id='1185'> +2.8112619e+11 </wgt>
<wgt id='1186'> +2.7186644e+11 </wgt>
<wgt id='1187'> +2.8566744e+11 </wgt>
<wgt id='1188'> +2.7766597e+11 </wgt>
<wgt id='1189'> +2.8548236e+11 </wgt>
<wgt id='1190'> +2.8413096e+11 </wgt>
<wgt id='1191'> +2.9505178e+11 </wgt>
<wgt id='1192'> +2.9175291e+11 </wgt>
<wgt id='1193'> +2.9524954e+11 </wgt>
<wgt id='1194'> +2.8451917e+11 </wgt>
<wgt id='1195'> +2.8375350e+11 </wgt>
<wgt id='1196'> +2.9233643e+11 </wgt>
<wgt id='1197'> +2.9396804e+11 </wgt>
<wgt id='1198'> +2.7561471e+11 </wgt>
<wgt id='1199'> +2.8221774e+11 </wgt>
<wgt id='1200'> +2.8243045e+11 </wgt>
<wgt id='1201'> +2.7934729e+11 </wgt>
<wgt id='1202'> +2.8860255e+11 </wgt>
<wgt id='1203'> +2.7770005e+11 </wgt>
<wgt id='1204'> +2.8816518e+11 </wgt>
<wgt id='1205'> +2.8504305e+11 </wgt>
<wgt id='1206'> +2.7657167e+11 </wgt>
<wgt id='1207'> +2.9306521e+11 </wgt>
<wgt id='1208'> +2.7276630e+11 </wgt>
<wgt id='1209'> +2.7878051e+11 </wgt>
<wgt id='1210'> +2.8044433e+11 </wgt>
<wgt id='1211'> +2.8574556e+11 </wgt>
<wgt id='1212'> +2.8364033e+11 </wgt>
<wgt id='1213'> +2.9331703e+11 </wgt>
<wgt id='1214'> +2.7573570e+11 </wgt>
<wgt id='1215'> +2.9184930e+11 </wgt>
<wgt id='1216'> +2.8597745e+11 </wgt>
<wgt id='1217'> +2.7593784e+11 </wgt>
<wgt id='1218'> +2.8477162e+11 </wgt>
<wgt id='1219'> +2.9438164e+11 </wgt>
<wgt id='1220'> +2.7713067e+11 </wgt>
<wgt id='1221'> +2.7507402e+11 </wgt>
<wgt id='1222'> +2.8033479e+11 </wgt>
<wgt id='1223'> +2.7260692e+11 </wgt>
<wgt id='1224'> +2.8351250e+11 </wgt>
<wgt id='1225'> +2.8813027e+11 </wgt>
<wgt id='1226'> +2.9055448e+11 </wgt>
<wgt id='1227'> +2.7322890e+11 </wgt>
<wgt id='1228'> +2.8139504e+11 </wgt>
<wgt id='1229'> +3.0280598e+11 </wgt>
<wgt id='1230'> +2.9405110e+11 </wgt>
<wgt id='1231'> +2.7924372e+11 </wgt>
<wgt id='1232'> +2.8906252e+11 </wgt>
<wgt id='1233'> +2.7809728e+11 </wgt>
<wgt id='1234'> +2.7635471e+11 </wgt>
<wgt id='1235'> +3.0291951e+11 </wgt>
<wgt id='1236'> +2.7660111e+11 </wgt>
<wgt id='1237'> +2.8978915e+11 </wgt>
<wgt id='1238'> +2.8948040e+11 </wgt>
<wgt id='1239'> +2.9188737e+11 </wgt>
<wgt id='1240'> +2.8534621e+11 </wgt>
<wgt id='1241'> +2.8205978e+11 </wgt>
<wgt id='1242'> +2.8071299e+11 </wgt>
<wgt id='1243'> +2.8887467e+11 </wgt>
<wgt id='1244'> +2.8129499e+11 </wgt>
<wgt id='1245'> +2.8175903e+11 </wgt>
<wgt id='1246'> +3.0716733e+11 </wgt>
<wgt id='1247'> +2.8363862e+11 </wgt>
<wgt id='1248'> +2.7529066e+11 </wgt>
<wgt id='1249'> +2.7759137e+11 </wgt>
<wgt id='1250'> +2.9213390e+11 </wgt>
<wgt id='1251'> +2.9867376e+11 </wgt>
<wgt id='1252'> +2.8711236e+11 </wgt>
<wgt id='1253'> +2.8525281e+11 </wgt>
<wgt id='1254'> +2.8856406e+11 </wgt>
<wgt id='1255'> +2.9801335e+11 </wgt>
<wgt id='1256'> +2.9543655e+11 </wgt>
<wgt id='1257'> +2.8585243e+11 </wgt>
<wgt id='1258'> +3.0001385e+11 </wgt>
<wgt id='1259'> +2.9475339e+11 </wgt>
<wgt id='1260'> +3.2540878e+11 </wgt>
<wgt id='1261'> +3.1369040e+11 </wgt>
<wgt id='1262'> +2.8962886e+11 </wgt>
<wgt id='1263'> +2.9668834e+11 </wgt>
<wgt id='1264'> +2.9854316e+11 </wgt>
<wgt id='1265'> +2.9855583e+11 </wgt>
<wgt id='1266'> +2.9441413e+11 </wgt>
<wgt id='1267'> +3.1592734e+11 </wgt>
<wgt id='1268'> +2.9404443e+11 </wgt>
<wgt id='1269'> +2.8711952e+11 </wgt>
<wgt id='1270'> +2.9152576e+11 </wgt>
<wgt id='1271'> +2.7909312e+11 </wgt>
<wgt id='1272'> +2.9325148e+11 </wgt>
<wgt id='1273'> +2.9178489e+11 </wgt>
<wgt id='1274'> +2.8752432e+11 </wgt>
<wgt id='1275'> +2.9836899e+11 </wgt>
<wgt id='1276'> +2.9550483e+11 </wgt>
<wgt id='1277'> +2.9087465e+11 </wgt>
<wgt id='1278'> +2.8676278e+11 </wgt>
<wgt id='1279'> +2.8110376e+11 </wgt>
<wgt id='1280'> +2.9359353e+11 </wgt>
<wgt id='1281'> +2.8572325e+11 </wgt>
<wgt id='1282'> +2.9652412e+11 </wgt>
<wgt id='1283'> +2.9630249e+11 </wgt>
<wgt id='1284'> +3.1463014e+11 </wgt>
<wgt id='1285'> +3.0812187e+11 </wgt>
<wgt id='1286'> +3.2861495e+11 </wgt>
<wgt id='1287'> +3.0320476e+11 </wgt>
<wgt id='1288'> +3.2364463e+11 </wgt>
<wgt id='1289'> +3.1292297e+11 </wgt>
<wgt id='1290'> +3.1134200e+11 </wgt>
<wgt id='1291'> +2.7783275e+11 </wgt>
<wgt id='1292'> +2.9741309e+11 </wgt>
<wgt id='1293'> +3.0014475e+11 </wgt>
<wgt id='1294'> +3.1440701e+11 </wgt>
<wgt id='1295'> +2.9841287e+11 </wgt>
<wgt id='1296'> +3.1546553e+11 </wgt>
<wgt id='1297'> +2.9538078e+11 </wgt>
<wgt id='1298'> +2.8766870e+11 </wgt>
<wgt id='1299'> +2.9857773e+11 </wgt>
<wgt id='1300'> +2.8796637e+11 </wgt>
<wgt id='1301'> +2.8078274e+11 </wgt>
<wgt id='1302'> +2.7589484e+11 </wgt>
<wgt id='1303'> +2.9836706e+11 </wgt>
<wgt id='1304'> +3.0620955e+11 </wgt>
<wgt id='1305'> +2.9825064e+11 </wgt>
<wgt id='1306'> +3.0513080e+11 </wgt>
<wgt id='1307'> +3.0339637e+11 </wgt>
<wgt id='1308'> +3.2531066e+11 </wgt>
<wgt id='1309'> +2.9577823e+11 </wgt>
<wgt id='1310'> +3.0211468e+11 </wgt>
<wgt id='1311'> +3.0776384e+11 </wgt>
<wgt id='1312'> +2.9916182e+11 </wgt>
<wgt id='1313'> +2.9686914e+11 </wgt>
<wgt id='1314'> +3.0396369e+11 </wgt>
<wgt id='1315'> +2.8486367e+11 </wgt>
<wgt id='1316'> +2.9846554e+11 </wgt>
<wgt id='1317'> +3.0133440e+11 </wgt>
<wgt id='1318'> +2.8642473e+11 </wgt>
<wgt id='1319'> +3.0744138e+11 </wgt>
<wgt id='1320'> +3.0905961e+11 </wgt>
<wgt id='1321'> +2.9369672e+11 </wgt>
<wgt id='1322'> +2.9776275e+11 </wgt>
<wgt id='1323'> +2.9844433e+11 </wgt>
<wgt id='1324'> +3.0122473e+11 </wgt>
<wgt id='1325'> +3.1085457e+11 </wgt>
<wgt id='1326'> +3.0285713e+11 </wgt>
<wgt id='1327'> +2.9365535e+11 </wgt>
<wgt id='1328'> +3.0240006e+11 </wgt>
<wgt id='1329'> +2.9767267e+11 </wgt>
<wgt id='1330'> +2.9056427e+11 </wgt>
<wgt id='1331'> +3.1918470e+11 </wgt>
<wgt id='1332'> +2.8605299e+11 </wgt>
<wgt id='1333'> +3.0049555e+11 </wgt>
<wgt id='1334'> +3.1379902e+11 </wgt>
<wgt id='1335'> +2.9244308e+11 </wgt>
<wgt id='1336'> +3.0236681e+11 </wgt>
<wgt id='1337'> +3.0838950e+11 </wgt>
<wgt id='1338'> +2.8971862e+11 </wgt>
<wgt id='1339'> +3.2018795e+11 </wgt>
<wgt id='1340'> +3.0157830e+11 </wgt>
<wgt id='1341'> +3.0492329e+11 </wgt>
<wgt id='1342'> +3.1534914e+11 </wgt>
<wgt id='1343'> +3.1015020e+11 </wgt>
<wgt id='1344'> +3.0351092e+11 </wgt>
<wgt id='1345'> +2.7977100e+11 </wgt>
<wgt id='1346'> +2.9945972e+11 </wgt>
<wgt id='1347'> +2.8676114e+11 </wgt>
<wgt id='1348'> +2.8792777e+11 </wgt>
<wgt id='1349'> +2.8967489e+11 </wgt>
<wgt id='1350'> +3.0043573e+11 </wgt>
<wgt id='1351'> +2.9661715e+11 </wgt>
<wgt id='1352'> +3.0042225e+11 </wgt>
<wgt id='1353'> +2.9710243e+11 </wgt>
<wgt id='1354'> +3.0683361e+11 </wgt>
<wgt id='1355'> +2.7553319e+11 </wgt>
<wgt id='1356'> +2.7828566e+11 </wgt>
<wgt id='1357'> +2.7640346e+11 </wgt>
<wgt id='1358'> +2.7295853e+11 </wgt>
<wgt id='1359'> +2.7628263e+11 </wgt>
<wgt id='1360'> +2.6877897e+11 </wgt>
<wgt id='1361'> +2.7555842e+11 </wgt>
<wgt id='1362'> +2.7745172e+11 </wgt>
<wgt id='1363'> +2.6943747e+11 </wgt>
<wgt id='1364'> +2.8176297e+11 </wgt>
<wgt id='1365'> +2.7320603e+11 </wgt>
<wgt id='1366'> +2.7560970e+11 </wgt>
<wgt id='1367'> +2.7638053e+11 </wgt>
<wgt id='1368'> +2.7557655e+11 </wgt>
<wgt id='1369'> +2.7978766e+11 </wgt>
<wgt id='1370'> +2.7366410e+11 </wgt>
<wgt id='1371'> +2.7327061e+11 </wgt>
<wgt id='1372'> +2.8001964e+11 </wgt>
<wgt id='1373'> +2.7916875e+11 </wgt>
<wgt id='1374'> +2.6743272e+11 </wgt>
<wgt id='1375'> +2.7445826e+11 </wgt>
<wgt id='1376'> +2.7640376e+11 </wgt>
<wgt id='1377'> +2.7547486e+11 </wgt>
<wgt id='1378'> +2.7137880e+11 </wgt>
<wgt id='1379'> +2.7400125e+11 </wgt>
<wgt id='1380'> +2.7393550e+11 </wgt>
<wgt id='1381'> +2.8084590e+11 </wgt>
<wgt id='1382'> +2.7515704e+11 </wgt>
<wgt id='1383'> +2.7546786e+11 </wgt>
<wgt id='1384'> +2.7387490e+11 </wgt>
<wgt id='1385'> +2.7403960e+11 </wgt>
<wgt id='1386'> +2.7745029e+11 </wgt>
<wgt id='1387'> +2.7452445e+11 </wgt>
<wgt id='1388'> +2.7181029e+11 </wgt>
<wgt id='1389'> +2.7385628e+11 </wgt>
<wgt id='1390'> +2.7451739e+11 </wgt>
<wgt id='1391'> +2.7327242e+11 </wgt>
<wgt id='1392'> +2.7337300e+11 </wgt>
<wgt id='1393'> +2.7354698e+11 </wgt>
<wgt id='1394'> +2.7324432e+11 </wgt>
<wgt id='1395'> +2.7127349e+11 </wgt>
<wgt id='1396'> +2.7656476e+11 </wgt>
<wgt id='1397'> +2.7614396e+11 </wgt>
<wgt id='1398'> +2.7616744e+11 </wgt>
<wgt id='1399'> +2.7116947e+11 </wgt>
<wgt id='1400'> +2.7257245e+11 </wgt>
<wgt id='1401'> +2.7407291e+11 </wgt>
<wgt id='1402'> +2.7878108e+11 </wgt>
<wgt id='1403'> +2.7867716e+11 </wgt>
<wgt id='1404'> +2.7338862e+11 </wgt>
<wgt id='1405'> +2.8164696e+11 </wgt>
<wgt id='1406'> +2.7530277e+11 </wgt>
<wgt id='1407'> +2.7622831e+11 </wgt>
<wgt id='1408'> +2.7872493e+11 </wgt>
<wgt id='1409'> +2.7342545e+11 </wgt>
<wgt id='1410'> +2.7316024e+11 </wgt>
<wgt id='1411'> +2.7521688e+11 </wgt>
<wgt id='1412'> +2.7439718e+11 </wgt>
<wgt id='1413'> +2.7245105e+11 </wgt>
<wgt id='1414'> +2.7726233e+11 </wgt>
<wgt id='1415'> +2.8129943e+11 </wgt>
<wgt id='1416'> +2.7866580e+11 </wgt>
<wgt id='1417'> +2.6887087e+11 </wgt>
<wgt id='1418'> +2.7718168e+11 </wgt>
<wgt id='1419'> +2.7907974e+11 </wgt>
<wgt id='1420'> +2.7475982e+11 </wgt>
<wgt id='1421'> +2.8158741e+11 </wgt>
<wgt id='1422'> +2.6796840e+11 </wgt>
<wgt id='1423'> +2.8077732e+11 </wgt>
<wgt id='1424'> +2.7655995e+11 </wgt>
<wgt id='1425'> +2.7575638e+11 </wgt>
<wgt id='1426'> +2.7906247e+11 </wgt>
<wgt id='1427'> +2.7549172e+11 </wgt>
<wgt id='1428'> +2.7538048e+11 </wgt>
<wgt id='1429'> +2.7143560e+11 </wgt>
<wgt id='1430'> +2.7080333e+11 </wgt>
<wgt id='1431'> +2.7081890e+11 </wgt>
<wgt id='1432'> +2.7743514e+11 </wgt>
<wgt id='1433'> +2.7615067e+11 </wgt>
<wgt id='1434'> +2.8224287e+11 </wgt>
<wgt id='1435'> +2.7466252e+11 </wgt>
<wgt id='1436'> +2.7968329e+11 </wgt>
<wgt id='1437'> +2.7819814e+11 </wgt>
<wgt id='1438'> +2.7358722e+11 </wgt>
<wgt id='1439'> +2.7628408e+11 </wgt>
<wgt id='1440'> +2.8011051e+11 </wgt>
<wgt id='1441'> +2.7541299e+11 </wgt>
<wgt id='1442'> +2.8315046e+11 </wgt>
<wgt id='1443'> +2.7370215e+11 </wgt>
<wgt id='1444'> +2.7388865e+11 </wgt>
<wgt id='1445'> +2.7847947e+11 </wgt>
<wgt id='1446'> +2.7779848e+11 </wgt>
<wgt id='1447'> +2.7155116e+11 </wgt>
<wgt id='1448'> +2.7789274e+11 </wgt>
<wgt id='1449'> +2.7690354e+11 </wgt>
<wgt id='1450'> +2.7366973e+11 </wgt>
<wgt id='1451'> +2.7678847e+11 </wgt>
<wgt id='1452'> +2.7870410e+11 </wgt>
<wgt id='1453'> +2.8052387e+11 </wgt>
<wgt id='1454'> +2.6889329e+11 </wgt>
<wgt id='1455'> +2.7476962e+11 </wgt>
<wgt id='1456'> +2.7476818e+11 </wgt>
<wgt id='1457'> +2.7431182e+11 </wgt>
<wgt id='1458'> +2.7744930e+11 </wgt>
<wgt id='1459'> +3.0484590e+11 </wgt>
<wgt id='1460'> +3.0017134e+11 </wgt>
<wgt id='1461'> +3.4735278e+11 </wgt>
<wgt id='1462'> +2.9963693e+11 </wgt>
<wgt id='1463'> +2.9988678e+11 </wgt>
<wgt id='1464'> +2.9931653e+11 </wgt>
<wgt id='1465'> +2.9969838e+11 </wgt>
<wgt id='1466'> +2.9958082e+11 </wgt>
<wgt id='1467'> +2.9979986e+11 </wgt>
<wgt id='1468'> +2.9936965e+11 </wgt>
<wgt id='1469'> +2.9918645e+11 </wgt>
<wgt id='1470'> +3.0000284e+11 </wgt>
<wgt id='1471'> +3.0011543e+11 </wgt>
<wgt id='1472'> +2.9914411e+11 </wgt>
<wgt id='1473'> +3.0078766e+11 </wgt>
<wgt id='1474'> +2.9853168e+11 </wgt>
<wgt id='1475'> +3.0073521e+11 </wgt>
<wgt id='1476'> +2.9885828e+11 </wgt>
<wgt id='1477'> +2.9906347e+11 </wgt>
<wgt id='1478'> +3.0097651e+11 </wgt>
<wgt id='1479'> +2.9906175e+11 </wgt>
<wgt id='1480'> +3.0003847e+11 </wgt>
<wgt id='1481'> +2.9921601e+11 </wgt>
<wgt id='1482'> +3.0020455e+11 </wgt>
<wgt id='1483'> +2.9973501e+11 </wgt>
<wgt id='1484'> +2.9949766e+11 </wgt>
<wgt id='1485'> +2.9983817e+11 </wgt>
<wgt id='1486'> +2.9915235e+11 </wgt>
<wgt id='1487'> +2.9988592e+11 </wgt>
<wgt id='1488'> +2.9932377e+11 </wgt>
<wgt id='1489'> +2.9928559e+11 </wgt>
<wgt id='1490'> +3.0058942e+11 </wgt>
<wgt id='1491'> +3.0455720e+11 </wgt>
<wgt id='1492'> +2.9689066e+11 </wgt>
<wgt id='1493'> +2.9613925e+11 </wgt>
<wgt id='1494'> +3.1059868e+11 </wgt>
<wgt id='1495'> +2.9900336e+11 </wgt>
<wgt id='1496'> +3.0031649e+11 </wgt>
<wgt id='1497'> +2.9983582e+11 </wgt>
<wgt id='1498'> +2.9936512e+11 </wgt>
<wgt id='1499'> +3.0150401e+11 </wgt>
<wgt id='1500'> +2.9861550e+11 </wgt>
<wgt id='1501'> +3.0010251e+11 </wgt>
<wgt id='1502'> +2.9840293e+11 </wgt>
<wgt id='1503'> +2.9650864e+11 </wgt>
<wgt id='1504'> +3.0295441e+11 </wgt>
<wgt id='1505'> +3.0066629e+11 </wgt>
<wgt id='1506'> +2.9864846e+11 </wgt>
<wgt id='1507'> +3.0092811e+11 </wgt>
<wgt id='1508'> +2.9893207e+11 </wgt>
<wgt id='1509'> +3.0020923e+11 </wgt>
<wgt id='1510'> +2.9718098e+11 </wgt>
<wgt id='1511'> +3.0074408e+11 </wgt>
<wgt id='1512'> +2.9932482e+11 </wgt>
<wgt id='1513'> +2.9955821e+11 </wgt>
<wgt id='1514'> +2.9970828e+11 </wgt>
<wgt id='1515'> +3.0203574e+11 </wgt>
<wgt id='1516'> +3.0010306e+11 </wgt>
<wgt id='1517'> +2.9926567e+11 </wgt>
<wgt id='1518'> +2.9994006e+11 </wgt>
<wgt id='1519'> +2.9801359e+11 </wgt>
<wgt id='1520'> +3.0079240e+11 </wgt>
<wgt id='1521'> +2.9887492e+11 </wgt>
<wgt id='1522'> +3.0009481e+11 </wgt>
<wgt id='1523'> +3.0100453e+11 </wgt>
<wgt id='1524'> +3.0098889e+11 </wgt>
<wgt id='1525'> +3.0088023e+11 </wgt>
<wgt id='1526'> +3.0040973e+11 </wgt>
<wgt id='1527'> +2.9963693e+11 </wgt>
<wgt id='1528'> +2.9946614e+11 </wgt>
<wgt id='1529'> +2.9927847e+11 </wgt>
<wgt id='1530'> +2.9551887e+11 </wgt>
<wgt id='1531'> +2.9626802e+11 </wgt>
<wgt id='1532'> +2.9387967e+11 </wgt>
<wgt id='1533'> +2.9186103e+11 </wgt>
<wgt id='1534'> +2.9465279e+11 </wgt>
<wgt id='1535'> +2.9874059e+11 </wgt>
<wgt id='1536'> +2.9323422e+11 </wgt>
<wgt id='1537'> +2.9616117e+11 </wgt>
<wgt id='1538'> +2.9310455e+11 </wgt>
<wgt id='1539'> +3.0248305e+11 </wgt>
<wgt id='1540'> +2.9541792e+11 </wgt>
<wgt id='1541'> +2.9641504e+11 </wgt>
<wgt id='1542'> +2.9617717e+11 </wgt>
<wgt id='1543'> +2.9731167e+11 </wgt>
<wgt id='1544'> +2.9436526e+11 </wgt>
<wgt id='1545'> +2.9430904e+11 </wgt>
<wgt id='1546'> +2.9236712e+11 </wgt>
<wgt id='1547'> +2.9856306e+11 </wgt>
<wgt id='1548'> +2.9426555e+11 </wgt>
<wgt id='1549'> +2.9292248e+11 </wgt>
<wgt id='1550'> +2.9688517e+11 </wgt>
<wgt id='1551'> +2.9690916e+11 </wgt>
<wgt id='1552'> +2.9559476e+11 </wgt>
<wgt id='1553'> +2.9808892e+11 </wgt>
<wgt id='1554'> +2.9611035e+11 </wgt>
<wgt id='1555'> +2.9687066e+11 </wgt>
<wgt id='1556'> +2.9863064e+11 </wgt>
<wgt id='1557'> +2.9550982e+11 </wgt>
<wgt id='1558'> +2.9625040e+11 </wgt>
<wgt id='1559'> +2.9424005e+11 </wgt>
<wgt id='1560'> +2.9504945e+11 </wgt>
<wgt id='1561'> +2.9234525e+11 </wgt>
<wgt id='1562'> +2.9483495e+11 </wgt>
<wgt id='1563'> +2.9619733e+11 </wgt>
<wgt id='1564'> +2.9588021e+11 </wgt>
<wgt id='1565'> +2.9845228e+11 </wgt>
<wgt id='1566'> +2.9654979e+11 </wgt>
<wgt id='1567'> +2.9982674e+11 </wgt>
<wgt id='1568'> +2.9621121e+11 </wgt>
<wgt id='1569'> +2.9590616e+11 </wgt>
<wgt id='1570'> +2.9815409e+11 </wgt>
<wgt id='1571'> +2.9605358e+11 </wgt>
<wgt id='1572'> +2.9798719e+11 </wgt>
<wgt id='1573'> +2.9908285e+11 </wgt>
<wgt id='1574'> +2.6592298e+11 </wgt>
<wgt id='1575'> +2.6599547e+11 </wgt>
<wgt id='1576'> +2.6585518e+11 </wgt>
<wgt id='1577'> +2.6594130e+11 </wgt>
<wgt id='1578'> +2.6653468e+11 </wgt>
<wgt id='1579'> +2.6679006e+11 </wgt>
<wgt id='1580'> +2.6656255e+11 </wgt>
<wgt id='1581'> +2.6529326e+11 </wgt>
<wgt id='1582'> +2.6498500e+11 </wgt>
<wgt id='1583'> +2.6548023e+11 </wgt>
<wgt id='1584'> +2.6650344e+11 </wgt>
<wgt id='1585'> +2.6611154e+11 </wgt>
<wgt id='1586'> +2.6489552e+11 </wgt>
<wgt id='1587'> +2.6515351e+11 </wgt>
<wgt id='1588'> +2.6464858e+11 </wgt>
<wgt id='1589'> +2.6567195e+11 </wgt>
<wgt id='1590'> +2.6573480e+11 </wgt>
<wgt id='1591'> +2.6599082e+11 </wgt>
<wgt id='1592'> +2.6488847e+11 </wgt>
<wgt id='1593'> +2.6505748e+11 </wgt>
<wgt id='1594'> +2.6673526e+11 </wgt>
<wgt id='1595'> +2.6369025e+11 </wgt>
<wgt id='1596'> +2.6950151e+11 </wgt>
<wgt id='1597'> +2.6765770e+11 </wgt>
<wgt id='1598'> +2.6788443e+11 </wgt>
<wgt id='1599'> +2.6318039e+11 </wgt>
<wgt id='1600'> +2.7034441e+11 </wgt>
<wgt id='1601'> +2.6806635e+11 </wgt>
<wgt id='1602'> +2.6598060e+11 </wgt>
<wgt id='1603'> +2.7634173e+11 </wgt>
<wgt id='1604'> +2.6596187e+11 </wgt>
</rwgt>
</event>
<event>
 9      1 +2.8343000e+11 1.40000000e+03 7.81738600e-03 7.88881200e-02
       21 -1    0    0  504  503 +0.0000000000e+00 +0.0000000000e+00 +1.9947223774e+02 1.9947223774e+02 0.0000000000e+00 0.0000e+00 -1.0000e+00
       21 -1    0    0  503  504 -0.0000000000e+00 -0.0000000000e+00 -2.4564822668e+03 2.4564822668e+03 0.0000000000e+00 0.0000e+00 -1.0000e+00
       45  2    1    2    0    0 +0.0000000000e+00 +1.1368683772e-13 -2.2570100291e+03 2.6559545045e+03 1.4000000210e+03 0.0000e+00 0.0000e+00
       25  2    3    3    0    0 +2.4180339034e+02 -5.8885264894e+02 -6.2051877961e+02 8.9771108950e+02 1.2500129040e+02 0.0000e+00 0.0000e+00
       35  2    3    3    0    0 -2.4180339034e+02 +5.8885264894e+02 -1.6364912495e+03 1.7582434151e+03 8.9999862730e+01 0.0000e+00 0.0000e+00
        5  1    5    5  501    0 -1.6934146989e+02 +3.3652921204e+02 -8.7156884419e+02 9.4951485083e+02 4.2140000000e+00 0.0000e+00 -1.0000e+00
       -5  1    5    5    0  501 -7.2461920451e+01 +2.5232343690e+02 -7.6492240526e+02 8.0872856422e+02 4.2140000000e+00 0.0000e+00 -1.0000e+00
        5  1    4    4  502    0 +1.0034552063e+02 -3.7615786052e+02 -4.2206429659e+02 5.7421249359e+02 4.2140000000e+00 0.0000e+00 -1.0000e+00
       -5  1    4    4    0  502 +1.4145786971e+02 -2.1269478842e+02 -1.9845448303e+02 3.2349859591e+02 4.2140000000e+00 0.0000e+00 -1.0000e+00
<mgrwt>
<rscale>  0 0.14000000E+04</rscale>
<asrwt>0</asrwt>
<pdfrwt beam="1">  1       21 0.30688036E-01 0.14000000E+04</pdfrwt>
<pdfrwt beam="2">  1       21 0.37792036E+00 0.14000000E+04</pdfrwt>
<totfact> 0.66586685E+01</totfact>
</mgrwt>
<rwgt>
<wgt id='1001'> +2.8343000e+11 </wgt>
<wgt id='1002'> +2.8823395e+11 </wgt>
<wgt id='1003'> +2.8823064e+11 </wgt>
<wgt id='1004'> +3.3142910e+11 </wgt>
<wgt id='1005'> +2.8343000e+11 </wgt>
<wgt id='1006'> +2.8343000e+11 </wgt>
<wgt id='1007'> +2.8823395e+11 </wgt>
<wgt id='1008'> +2.8823064e+11 </wgt>
<wgt id='1009'> +3.3142910e+11 </wgt>
<wgt id='1010'> +2.8343000e+11 </wgt>
<wgt id='1011'> +2.8343000e+11 </wgt>
<wgt id='1012'> +2.8823395e+11 </wgt>
<wgt id='1013'> +2.8823064e+11 </wgt>
<wgt id='1014'> +3.3142910e+11 </wgt>
<wgt id='1015'> +2.8343000e+11 </wgt>
<wgt id='1016'> +2.4893493e+11 </wgt>
<wgt id='1017'> +2.5288288e+11 </wgt>
<wgt id='1018'> +2.5288016e+11 </wgt>
<wgt id='1019'> +2.8823064e+11 </wgt>
<wgt id='1020'> +2.4893493e+11 </wgt>
<wgt id='1021'> +2.4893493e+11 </wgt>
<wgt id='1022'> +2.5288288e+11 </wgt>
<wgt id='1023'> +2.5288016e+11 </wgt>
<wgt id='1024'> +2.8823064e+11 </wgt>
<wgt id='1025'> +2.4893493e+11 </wgt>
<wgt id='1026'> +2.4893493e+11 </wgt>
<wgt id='1027'> +2.5288288e+11 </wgt>
<wgt id='1028'> +2.5288016e+11 </wgt>
<wgt id='1029'> +2.8823064e+11 </wgt>
<wgt id='1030'> +2.4893493e+11 </wgt>
<wgt id='1031'> +3.2553676e+11 </wgt>
<wgt id='1032'> +3.3143317e+11 </wgt>
<wgt id='1033'> +3.3142910e+11 </wgt>
<wgt id='1034'> +3.8494837e+11 </wgt>
<wgt id='1035'> +3.2553675e+11 </wgt>
<wgt id='1036'> +3.2553676e+11 </wgt>
<wgt id='1037'> +3.3143317e+11 </wgt>
<wgt id='1038'> +3.3142910e+11 </wgt>
<wgt id='1039'> +3.8494837e+11 </wgt>
<wgt id='1040'> +3.2553675e+11 </wgt>
<wgt id='1041'> +3.2553676e+11 </wgt>
<wgt id='1042'> +3.3143317e+11 </wgt>
<wgt id='1043'> +3.3142910e+11 </wgt>
<wgt id='1044'> +3.8494837e+11 </wgt>
<wgt id='1045'> +3.2553675e+11 </wgt>
<wgt id='1046'> +2.8343000e+11 </wgt>
<wgt id='1047'> +2.8343000e+11 </wgt>
<wgt id='1048'> +2.8343000e+11 </wgt>
<wgt id='1049'> +2.8282207e+11 </wgt>
<wgt id='1050'> +2.8081114e+11 </wgt>
<wgt id='1051'> +2.8335108e+11 </wgt>
<wgt id='1052'> +2.8314100e+11 </wgt>
<wgt id='1053'> +2.8178031e+11 </wgt>
<wgt id='1054'> +2.8741895e+11 </wgt>
<wgt id='1055'> +2.8171563e+11 </wgt>
<wgt id='1056'> +2.8057955e+11 </wgt>
<wgt id='1057'> +2.8341584e+11 </wgt>
<wgt id='1058'> +2.8456399e+11 </wgt>
<wgt id='1059'> +2.8511848e+11 </wgt>
<wgt id='1060'> +2.8205175e+11 </wgt>
<wgt id='1061'> +2.8485933e+11 </wgt>
<wgt id='1062'> +2.8653886e+11 </wgt>
<wgt id='1063'> +2.8437671e+11 </wgt>
<wgt id='1064'> +2.8731206e+11 </wgt>
<wgt id='1065'> +2.8534446e+11 </wgt>
<wgt id='1066'> +2.8322285e+11 </wgt>
<wgt id='1067'> +2.8394324e+11 </wgt>
<wgt id='1068'> +2.8504195e+11 </wgt>
<wgt id='1069'> +2.8101265e+11 </wgt>
<wgt id='1070'> +2.7920267e+11 </wgt>
<wgt id='1071'> +2.8707635e+11 </wgt>
<wgt id='1072'> +2.7546033e+11 </wgt>
<wgt id='1073'> +2.8609045e+11 </wgt>
<wgt id='1074'> +2.8521693e+11 </wgt>
<wgt id='1075'> +2.8049153e+11 </wgt>
<wgt id='1076'> +2.8562995e+11 </wgt>
<wgt id='1077'> +2.8051944e+11 </wgt>
<wgt id='1078'> +2.7540202e+11 </wgt>
<wgt id='1079'> +2.8523389e+11 </wgt>
<wgt id='1080'> +2.8693500e+11 </wgt>
<wgt id='1081'> +2.8447137e+11 </wgt>
<wgt id='1082'> +2.8144609e+11 </wgt>
<wgt id='1083'> +2.8259715e+11 </wgt>
<wgt id='1084'> +2.8576946e+11 </wgt>
<wgt id='1085'> +2.8188849e+11 </wgt>
<wgt id='1086'> +2.8586373e+11 </wgt>
<wgt id='1087'> +2.8502628e+11 </wgt>
<wgt id='1088'> +2.8378817e+11 </wgt>
<wgt id='1089'> +2.8230142e+11 </wgt>
<wgt id='1090'> +2.8448876e+11 </wgt>
<wgt id='1091'> +2.8354514e+11 </wgt>
<wgt id='1092'> +2.8293344e+11 </wgt>
<wgt id='1093'> +2.8202962e+11 </wgt>
<wgt id='1094'> +2.8052382e+11 </wgt>
<wgt id='1095'> +2.8363822e+11 </wgt>
<wgt id='1096'> +2.8446253e+11 </wgt>
<wgt id='1097'> +2.8294924e+11 </wgt>
<wgt id='1098'> +2.8410669e+11 </wgt>
<wgt id='1099'> +2.8429080e+11 </wgt>
<wgt id='1100'> +2.8343032e+11 </wgt>
<wgt id='1101'> +2.8369225e+11 </wgt>
<wgt id='1102'> +2.8297123e+11 </wgt>
<wgt id='1103'> +2.8012389e+11 </wgt>
<wgt id='1104'> +2.8392598e+11 </wgt>
<wgt id='1105'> +2.8401592e+11 </wgt>
<wgt id='1106'> +2.8402901e+11 </wgt>
<wgt id='1107'> +2.8421960e+11 </wgt>
<wgt id='1108'> +2.8302056e+11 </wgt>
<wgt id='1109'> +2.8431648e+11 </wgt>
<wgt id='1110'> +2.8311406e+11 </wgt>
<wgt id='1111'> +2.8599911e+11 </wgt>
<wgt id='1112'> +2.8245195e+11 </wgt>
<wgt id='1113'> +2.8353244e+11 </wgt>
<wgt id='1114'> +2.8303376e+11 </wgt>
<wgt id='1115'> +2.8091826e+11 </wgt>
<wgt id='1116'> +2.8501332e+11 </wgt>
<wgt id='1117'> +2.8282804e+11 </wgt>
<wgt id='1118'> +2.8536302e+11 </wgt>
<wgt id='1119'> +2.8189280e+11 </wgt>
<wgt id='1120'> +2.8110197e+11 </wgt>
<wgt id='1121'> +2.8288191e+11 </wgt>
<wgt id='1122'> +2.8205693e+11 </wgt>
<wgt id='1123'> +2.8349327e+11 </wgt>
<wgt id='1124'> +2.8446927e+11 </wgt>
<wgt id='1125'> +2.8356247e+11 </wgt>
<wgt id='1126'> +2.8361159e+11 </wgt>
<wgt id='1127'> +2.8359961e+11 </wgt>
<wgt id='1128'> +2.8316659e+11 </wgt>
<wgt id='1129'> +2.8260178e+11 </wgt>
<wgt id='1130'> +2.8344710e+11 </wgt>
<wgt id='1131'> +2.8545781e+11 </wgt>
<wgt id='1132'> +2.8286406e+11 </wgt>
<wgt id='1133'> +2.8382220e+11 </wgt>
<wgt id='1134'> +2.8340075e+11 </wgt>
<wgt id='1135'> +2.8367241e+11 </wgt>
<wgt id='1136'> +2.8272946e+11 </wgt>
<wgt id='1137'> +2.8263038e+11 </wgt>
<wgt id='1138'> +2.8359939e+11 </wgt>
<wgt id='1139'> +2.8399530e+11 </wgt>
<wgt id='1140'> +2.8413153e+11 </wgt>
<wgt id='1141'> +2.8270528e+11 </wgt>
<wgt id='1142'> +2.8351571e+11 </wgt>
<wgt id='1143'> +2.8414937e+11 </wgt>
<wgt id='1144'> +2.8343973e+11 </wgt>
<wgt id='1145'> +2.8388022e+11 </wgt>
<wgt id='1146'> +2.8395767e+11 </wgt>
<wgt id='1147'> +2.8360984e+11 </wgt>
<wgt id='1148'> +2.8343000e+11 </wgt>
<wgt id='1149'> +2.8343000e+11 </wgt>
<wgt id='1150'> +2.7926939e+11 </wgt>
<wgt id='1151'> +2.8622266e+11 </wgt>
<wgt id='1152'> +2.9956230e+11 </wgt>
<wgt id='1153'> +2.9204906e+11 </wgt>
<wgt id='1154'> +2.5592794e+11 </wgt>
<wgt id='1155'> +3.0630239e+11 </wgt>
<wgt id='1156'> +2.8886212e+11 </wgt>
<wgt id='1157'> +2.8809273e+11 </wgt>
<wgt id='1158'> +3.0734636e+11 </wgt>
<wgt id='1159'> +2.9728536e+11 </wgt>
<wgt id='1160'> +2.4714885e+11 </wgt>
<wgt id='1161'> +2.9890372e+11 </wgt>
<wgt id='1162'> +2.6849128e+11 </wgt>
<wgt id='1163'> +2.8059443e+11 </wgt>
<wgt id='1164'> +2.4343324e+11 </wgt>
<wgt id='1165'> +2.8667279e+11 </wgt>
<wgt id='1166'> +2.7682813e+11 </wgt>
<wgt id='1167'> +2.7757563e+11 </wgt>
<wgt id='1168'> +2.4978988e+11 </wgt>
<wgt id='1169'> +2.5036667e+11 </wgt>
<wgt id='1170'> +2.8671795e+11 </wgt>
<wgt id='1171'> +2.6228031e+11 </wgt>
<wgt id='1172'> +2.5601576e+11 </wgt>
<wgt id='1173'> +2.8768741e+11 </wgt>
<wgt id='1174'> +2.9056130e+11 </wgt>
<wgt id='1175'> +2.9215524e+11 </wgt>
<wgt id='1176'> +2.9713557e+11 </wgt>
<wgt id='1177'> +3.1301413e+11 </wgt>
<wgt id='1178'> +2.7498210e+11 </wgt>
<wgt id='1179'> +3.0170553e+11 </wgt>
<wgt id='1180'> +3.0693902e+11 </wgt>
<wgt id='1181'> +2.4663903e+11 </wgt>
<wgt id='1182'> +2.6414690e+11 </wgt>
<wgt id='1183'> +2.9938602e+11 </wgt>
<wgt id='1184'> +2.8220915e+11 </wgt>
<wgt id='1185'> +2.8322739e+11 </wgt>
<wgt id='1186'> +2.6647815e+11 </wgt>
<wgt id='1187'> +3.1635441e+11 </wgt>
<wgt id='1188'> +3.0619617e+11 </wgt>
<wgt id='1189'> +3.1456333e+11 </wgt>
<wgt id='1190'> +3.0495210e+11 </wgt>
<wgt id='1191'> +3.2405545e+11 </wgt>
<wgt id='1192'> +2.8912259e+11 </wgt>
<wgt id='1193'> +2.9617266e+11 </wgt>
<wgt id='1194'> +2.6789306e+11 </wgt>
<wgt id='1195'> +2.8505922e+11 </wgt>
<wgt id='1196'> +2.5986460e+11 </wgt>
<wgt id='1197'> +2.8666629e+11 </wgt>
<wgt id='1198'> +2.6817760e+11 </wgt>
<wgt id='1199'> +3.0858868e+11 </wgt>
<wgt id='1200'> +2.6418552e+11 </wgt>
<wgt id='1201'> +3.1144198e+11 </wgt>
<wgt id='1202'> +2.7458346e+11 </wgt>
<wgt id='1203'> +2.8141161e+11 </wgt>
<wgt id='1204'> +2.5214803e+11 </wgt>
<wgt id='1205'> +3.0434290e+11 </wgt>
<wgt id='1206'> +2.6568919e+11 </wgt>
<wgt id='1207'> +3.0850073e+11 </wgt>
<wgt id='1208'> +2.9844605e+11 </wgt>
<wgt id='1209'> +2.6117199e+11 </wgt>
<wgt id='1210'> +2.9715785e+11 </wgt>
<wgt id='1211'> +3.0102456e+11 </wgt>
<wgt id='1212'> +2.5302178e+11 </wgt>
<wgt id='1213'> +2.7335707e+11 </wgt>
<wgt id='1214'> +2.7544097e+11 </wgt>
<wgt id='1215'> +2.9615838e+11 </wgt>
<wgt id='1216'> +2.7794341e+11 </wgt>
<wgt id='1217'> +2.7636146e+11 </wgt>
<wgt id='1218'> +2.6202328e+11 </wgt>
<wgt id='1219'> +2.7717793e+11 </wgt>
<wgt id='1220'> +2.6185694e+11 </wgt>
<wgt id='1221'> +2.5213017e+11 </wgt>
<wgt id='1222'> +2.6834572e+11 </wgt>
<wgt id='1223'> +2.8292158e+11 </wgt>
<wgt id='1224'> +2.7929153e+11 </wgt>
<wgt id='1225'> +2.6341932e+11 </wgt>
<wgt id='1226'> +2.7666397e+11 </wgt>
<wgt id='1227'> +2.6119274e+11 </wgt>
<wgt id='1228'> +2.4795007e+11 </wgt>
<wgt id='1229'> +2.8854036e+11 </wgt>
<wgt id='1230'> +2.8398344e+11 </wgt>
<wgt id='1231'> +2.8667279e+11 </wgt>
<wgt id='1232'> +2.8374239e+11 </wgt>
<wgt id='1233'> +2.8574748e+11 </wgt>
<wgt id='1234'> +3.0371741e+11 </wgt>
<wgt id='1235'> +3.0868865e+11 </wgt>
<wgt id='1236'> +3.0956037e+11 </wgt>
<wgt id='1237'> +2.9752741e+11 </wgt>
<wgt id='1238'> +3.2111168e+11 </wgt>
<wgt id='1239'> +3.0475660e+11 </wgt>
<wgt id='1240'> +3.1105295e+11 </wgt>
<wgt id='1241'> +2.6136638e+11 </wgt>
<wgt id='1242'> +2.9015508e+11 </wgt>
<wgt id='1243'> +2.6034199e+11 </wgt>
<wgt id='1244'> +2.8883639e+11 </wgt>
<wgt id='1245'> +3.0224240e+11 </wgt>
<wgt id='1246'> +3.0780450e+11 </wgt>
<wgt id='1247'> +2.6747132e+11 </wgt>
<wgt id='1248'> +2.7609410e+11 </wgt>
<wgt id='1249'> +2.7970361e+11 </wgt>
<wgt id='1250'> +2.9798238e+11 </wgt>
<wgt id='1251'> +3.1557740e+11 </wgt>
<wgt id='1252'> +2.8000271e+11 </wgt>
<wgt id='1253'> +3.2657151e+11 </wgt>
<wgt id='1254'> +2.9176174e+11 </wgt>
<wgt id='1255'> +3.1576188e+11 </wgt>
<wgt id='1256'> +3.2470672e+11 </wgt>
<wgt id='1257'> +2.6014843e+11 </wgt>
<wgt id='1258'> +3.0660277e+11 </wgt>
<wgt id='1259'> +3.4483713e+11 </wgt>
<wgt id='1260'> +3.9180548e+11 </wgt>
<wgt id='1261'> +3.9315705e+11 </wgt>
<wgt id='1262'> +3.1394628e+11 </wgt>
<wgt id='1263'> +3.2041050e+11 </wgt>
<wgt id='1264'> +3.0028610e+11 </wgt>
<wgt id='1265'> +2.6809279e+11 </wgt>
<wgt id='1266'> +2.9259638e+11 </wgt>
<wgt id='1267'> +4.5844403e+11 </wgt>
<wgt id='1268'> +2.5925504e+11 </wgt>
<wgt id='1269'> +2.5621746e+11 </wgt>
<wgt id='1270'> +3.4556737e+11 </wgt>
<wgt id='1271'> +1.9653798e+11 </wgt>
<wgt id='1272'> +3.0104336e+11 </wgt>
<wgt id='1273'> +2.9438466e+11 </wgt>
<wgt id='1274'> +3.0385797e+11 </wgt>
<wgt id='1275'> +2.8851654e+11 </wgt>
<wgt id='1276'> +3.2866991e+11 </wgt>
<wgt id='1277'> +3.6455039e+11 </wgt>
<wgt id='1278'> +3.2707477e+11 </wgt>
<wgt id='1279'> +2.6054059e+11 </wgt>
<wgt id='1280'> +3.5190097e+11 </wgt>
<wgt id='1281'> +2.7624575e+11 </wgt>
<wgt id='1282'> +2.8422874e+11 </wgt>
<wgt id='1283'> +3.4796581e+11 </wgt>
<wgt id='1284'> +2.7782255e+11 </wgt>
<wgt id='1285'> +2.5696448e+11 </wgt>
<wgt id='1286'> +4.0117021e+11 </wgt>
<wgt id='1287'> +4.1420896e+11 </wgt>
<wgt id='1288'> +4.5147148e+11 </wgt>
<wgt id='1289'> +3.5382256e+11 </wgt>
<wgt id='1290'> +3.2590852e+11 </wgt>
<wgt id='1291'> +2.9072459e+11 </wgt>
<wgt id='1292'> +3.1985057e+11 </wgt>
<wgt id='1293'> +3.0050597e+11 </wgt>
<wgt id='1294'> +4.3193543e+11 </wgt>
<wgt id='1295'> +3.3013560e+11 </wgt>
<wgt id='1296'> +4.2511457e+11 </wgt>
<wgt id='1297'> +2.6478126e+11 </wgt>
<wgt id='1298'> +2.9036440e+11 </wgt>
<wgt id='1299'> +3.0537260e+11 </wgt>
<wgt id='1300'> +2.3189363e+11 </wgt>
<wgt id='1301'> +2.3744003e+11 </wgt>
<wgt id='1302'> +2.5476367e+11 </wgt>
<wgt id='1303'> +3.0081814e+11 </wgt>
<wgt id='1304'> +3.9064626e+11 </wgt>
<wgt id='1305'> +2.9045663e+11 </wgt>
<wgt id='1306'> +3.0201602e+11 </wgt>
<wgt id='1307'> +2.6587408e+11 </wgt>
<wgt id='1308'> +3.5653295e+11 </wgt>
<wgt id='1309'> +3.2646010e+11 </wgt>
<wgt id='1310'> +3.0368764e+11 </wgt>
<wgt id='1311'> +2.7900382e+11 </wgt>
<wgt id='1312'> +3.8701959e+11 </wgt>
<wgt id='1313'> +3.5015638e+11 </wgt>
<wgt id='1314'> +2.4763116e+11 </wgt>
<wgt id='1315'> +2.5774394e+11 </wgt>
<wgt id='1316'> +2.9712471e+11 </wgt>
<wgt id='1317'> +4.0778580e+11 </wgt>
<wgt id='1318'> +2.8232527e+11 </wgt>
<wgt id='1319'> +2.9249179e+11 </wgt>
<wgt id='1320'> +3.4018169e+11 </wgt>
<wgt id='1321'> +3.3198108e+11 </wgt>
<wgt id='1322'> +3.1748963e+11 </wgt>
<wgt id='1323'> +2.4356282e+11 </wgt>
<wgt id='1324'> +3.3858940e+11 </wgt>
<wgt id='1325'> +3.2718542e+11 </wgt>
<wgt id='1326'> +3.5468461e+11 </wgt>
<wgt id='1327'> +3.4890137e+11 </wgt>
<wgt id='1328'> +3.3761478e+11 </wgt>
<wgt id='1329'> +2.6474630e+11 </wgt>
<wgt id='1330'> +2.5884459e+11 </wgt>
<wgt id='1331'> +3.4153835e+11 </wgt>
<wgt id='1332'> +3.3895601e+11 </wgt>
<wgt id='1333'> +3.0840441e+11 </wgt>
<wgt id='1334'> +3.6574922e+11 </wgt>
<wgt id='1335'> +2.4536807e+11 </wgt>
<wgt id='1336'> +4.0553780e+11 </wgt>
<wgt id='1337'> +3.1752619e+11 </wgt>
<wgt id='1338'> +2.6634629e+11 </wgt>
<wgt id='1339'> +2.7309813e+11 </wgt>
<wgt id='1340'> +3.7350321e+11 </wgt>
<wgt id='1341'> +4.4318607e+11 </wgt>
<wgt id='1342'> +2.6660755e+11 </wgt>
<wgt id='1343'> +3.2625946e+11 </wgt>
<wgt id='1344'> +3.5157508e+11 </wgt>
<wgt id='1345'> +1.8406773e+11 </wgt>
<wgt id='1346'> +2.9767700e+11 </wgt>
<wgt id='1347'> +3.0612170e+11 </wgt>
<wgt id='1348'> +2.5450823e+11 </wgt>
<wgt id='1349'> +2.6902008e+11 </wgt>
<wgt id='1350'> +3.9559932e+11 </wgt>
<wgt id='1351'> +2.8658149e+11 </wgt>
<wgt id='1352'> +3.1993868e+11 </wgt>
<wgt id='1353'> +3.2917132e+11 </wgt>
<wgt id='1354'> +3.2139129e+11 </wgt>
<wgt id='1355'> +2.7613691e+11 </wgt>
<wgt id='1356'> +2.8537962e+11 </wgt>
<wgt id='1357'> +2.7927825e+11 </wgt>
<wgt id='1358'> +2.6444329e+11 </wgt>
<wgt id='1359'> +2.7788194e+11 </wgt>
<wgt id='1360'> +2.6432391e+11 </wgt>
<wgt id='1361'> +2.7733183e+11 </wgt>
<wgt id='1362'> +2.8184887e+11 </wgt>
<wgt id='1363'> +2.6399830e+11 </wgt>
<wgt id='1364'> +3.0645589e+11 </wgt>
<wgt id='1365'> +2.6928916e+11 </wgt>
<wgt id='1366'> +2.8277606e+11 </wgt>
<wgt id='1367'> +2.6820885e+11 </wgt>
<wgt id='1368'> +2.9652858e+11 </wgt>
<wgt id='1369'> +2.7794374e+11 </wgt>
<wgt id='1370'> +2.5967477e+11 </wgt>
<wgt id='1371'> +2.5939038e+11 </wgt>
<wgt id='1372'> +2.6342949e+11 </wgt>
<wgt id='1373'> +2.9884284e+11 </wgt>
<wgt id='1374'> +2.6984735e+11 </wgt>
<wgt id='1375'> +2.7956445e+11 </wgt>
<wgt id='1376'> +2.8015843e+11 </wgt>
<wgt id='1377'> +2.7594170e+11 </wgt>
<wgt id='1378'> +2.7974839e+11 </wgt>
<wgt id='1379'> +2.6669268e+11 </wgt>
<wgt id='1380'> +2.6763409e+11 </wgt>
<wgt id='1381'> +2.8381665e+11 </wgt>
<wgt id='1382'> +2.6017136e+11 </wgt>
<wgt id='1383'> +2.7158182e+11 </wgt>
<wgt id='1384'> +2.5596944e+11 </wgt>
<wgt id='1385'> +2.7392184e+11 </wgt>
<wgt id='1386'> +2.7550741e+11 </wgt>
<wgt id='1387'> +2.8819336e+11 </wgt>
<wgt id='1388'> +2.8008513e+11 </wgt>
<wgt id='1389'> +2.6273243e+11 </wgt>
<wgt id='1390'> +2.7736708e+11 </wgt>
<wgt id='1391'> +2.9753473e+11 </wgt>
<wgt id='1392'> +2.5870351e+11 </wgt>
<wgt id='1393'> +2.8525127e+11 </wgt>
<wgt id='1394'> +2.8850118e+11 </wgt>
<wgt id='1395'> +2.5079018e+11 </wgt>
<wgt id='1396'> +2.7135138e+11 </wgt>
<wgt id='1397'> +2.7250942e+11 </wgt>
<wgt id='1398'> +3.0261397e+11 </wgt>
<wgt id='1399'> +2.6058854e+11 </wgt>
<wgt id='1400'> +2.7331312e+11 </wgt>
<wgt id='1401'> +2.5757147e+11 </wgt>
<wgt id='1402'> +2.8012161e+11 </wgt>
<wgt id='1403'> +2.8755600e+11 </wgt>
<wgt id='1404'> +2.7265677e+11 </wgt>
<wgt id='1405'> +3.0731679e+11 </wgt>
<wgt id='1406'> +2.8801819e+11 </wgt>
<wgt id='1407'> +3.0254838e+11 </wgt>
<wgt id='1408'> +3.0039782e+11 </wgt>
<wgt id='1409'> +2.7282951e+11 </wgt>
<wgt id='1410'> +2.8274070e+11 </wgt>
<wgt id='1411'> +2.7479577e+11 </wgt>
<wgt id='1412'> +3.0282793e+11 </wgt>
<wgt id='1413'> +2.8515581e+11 </wgt>
<wgt id='1414'> +2.8557613e+11 </wgt>
<wgt id='1415'> +2.6665036e+11 </wgt>
<wgt id='1416'> +2.7701818e+11 </wgt>
<wgt id='1417'> +2.5527572e+11 </wgt>
<wgt id='1418'> +2.7004798e+11 </wgt>
<wgt id='1419'> +2.7793360e+11 </wgt>
<wgt id='1420'> +2.5382897e+11 </wgt>
<wgt id='1421'> +2.9420757e+11 </wgt>
<wgt id='1422'> +2.5365607e+11 </wgt>
<wgt id='1423'> +2.7405086e+11 </wgt>
<wgt id='1424'> +2.6449831e+11 </wgt>
<wgt id='1425'> +2.7239718e+11 </wgt>
<wgt id='1426'> +2.8792129e+11 </wgt>
<wgt id='1427'> +2.6543795e+11 </wgt>
<wgt id='1428'> +2.6223399e+11 </wgt>
<wgt id='1429'> +2.7048584e+11 </wgt>
<wgt id='1430'> +2.6349691e+11 </wgt>
<wgt id='1431'> +2.7735469e+11 </wgt>
<wgt id='1432'> +2.6408111e+11 </wgt>
<wgt id='1433'> +2.6834868e+11 </wgt>
<wgt id='1434'> +2.6088012e+11 </wgt>
<wgt id='1435'> +2.8908124e+11 </wgt>
<wgt id='1436'> +2.7164881e+11 </wgt>
<wgt id='1437'> +2.8133600e+11 </wgt>
<wgt id='1438'> +2.7096826e+11 </wgt>
<wgt id='1439'> +2.7814852e+11 </wgt>
<wgt id='1440'> +2.8115202e+11 </wgt>
<wgt id='1441'> +2.7431492e+11 </wgt>
<wgt id='1442'> +2.7807554e+11 </wgt>
<wgt id='1443'> +2.5897836e+11 </wgt>
<wgt id='1444'> +2.8560515e+11 </wgt>
<wgt id='1445'> +2.6612532e+11 </wgt>
<wgt id='1446'> +3.0033175e+11 </wgt>
<wgt id='1447'> +2.9544141e+11 </wgt>
<wgt id='1448'> +2.8171491e+11 </wgt>
<wgt id='1449'> +2.7243597e+11 </wgt>
<wgt id='1450'> +2.6606515e+11 </wgt>
<wgt id='1451'> +2.6119865e+11 </wgt>
<wgt id='1452'> +2.8929477e+11 </wgt>
<wgt id='1453'> +2.9707154e+11 </wgt>
<wgt id='1454'> +2.6604998e+11 </wgt>
<wgt id='1455'> +2.8152890e+11 </wgt>
<wgt id='1456'> +2.6933417e+11 </wgt>
<wgt id='1457'> +2.8308216e+11 </wgt>
<wgt id='1458'> +2.8829796e+11 </wgt>
<wgt id='1459'> +3.0357430e+11 </wgt>
<wgt id='1460'> +2.9727545e+11 </wgt>
<wgt id='1461'> +3.7585715e+11 </wgt>
<wgt id='1462'> +3.3571208e+11 </wgt>
<wgt id='1463'> +3.3593713e+11 </wgt>
<wgt id='1464'> +3.3542341e+11 </wgt>
<wgt id='1465'> +3.3580296e+11 </wgt>
<wgt id='1466'> +3.3562908e+11 </wgt>
<wgt id='1467'> +3.3577652e+11 </wgt>
<wgt id='1468'> +3.3560635e+11 </wgt>
<wgt id='1469'> +3.3520145e+11 </wgt>
<wgt id='1470'> +3.3612671e+11 </wgt>
<wgt id='1471'> +3.3619606e+11 </wgt>
<wgt id='1472'> +3.3521355e+11 </wgt>
<wgt id='1473'> +3.3717296e+11 </wgt>
<wgt id='1474'> +3.3430854e+11 </wgt>
<wgt id='1475'> +3.3697486e+11 </wgt>
<wgt id='1476'> +3.3481768e+11 </wgt>
<wgt id='1477'> +3.3506173e+11 </wgt>
<wgt id='1478'> +3.3723200e+11 </wgt>
<wgt id='1479'> +3.3531154e+11 </wgt>
<wgt id='1480'> +3.3599946e+11 </wgt>
<wgt id='1481'> +3.3450419e+11 </wgt>
<wgt id='1482'> +3.3735748e+11 </wgt>
<wgt id='1483'> +3.3570183e+11 </wgt>
<wgt id='1484'> +3.3573812e+11 </wgt>
<wgt id='1485'> +3.3580139e+11 </wgt>
<wgt id='1486'> +3.3549452e+11 </wgt>
<wgt id='1487'> +3.3576022e+11 </wgt>
<wgt id='1488'> +3.3561861e+11 </wgt>
<wgt id='1489'> +3.3526075e+11 </wgt>
<wgt id='1490'> +3.3693678e+11 </wgt>
<wgt id='1491'> +3.4240600e+11 </wgt>
<wgt id='1492'> +3.3197821e+11 </wgt>
<wgt id='1493'> +3.3125399e+11 </wgt>
<wgt id='1494'> +3.4966218e+11 </wgt>
<wgt id='1495'> +3.3412244e+11 </wgt>
<wgt id='1496'> +3.3742500e+11 </wgt>
<wgt id='1497'> +3.3613588e+11 </wgt>
<wgt id='1498'> +3.3513740e+11 </wgt>
<wgt id='1499'> +3.3924560e+11 </wgt>
<wgt id='1500'> +3.3379405e+11 </wgt>
<wgt id='1501'> +3.3505494e+11 </wgt>
<wgt id='1502'> +3.3755159e+11 </wgt>
<wgt id='1503'> +3.2379546e+11 </wgt>
<wgt id='1504'> +3.5006851e+11 </wgt>
<wgt id='1505'> +3.3502003e+11 </wgt>
<wgt id='1506'> +3.3646017e+11 </wgt>
<wgt id='1507'> +3.4759945e+11 </wgt>
<wgt id='1508'> +3.1212958e+11 </wgt>
<wgt id='1509'> +3.3741421e+11 </wgt>
<wgt id='1510'> +3.2829767e+11 </wgt>
<wgt id='1511'> +3.3590279e+11 </wgt>
<wgt id='1512'> +3.3744009e+11 </wgt>
<wgt id='1513'> +3.3483901e+11 </wgt>
<wgt id='1514'> +3.3665537e+11 </wgt>
<wgt id='1515'> +3.4952527e+11 </wgt>
<wgt id='1516'> +3.2847726e+11 </wgt>
<wgt id='1517'> +3.3385124e+11 </wgt>
<wgt id='1518'> +3.3947210e+11 </wgt>
<wgt id='1519'> +3.3237046e+11 </wgt>
<wgt id='1520'> +3.3806854e+11 </wgt>
<wgt id='1521'> +3.3275091e+11 </wgt>
<wgt id='1522'> +3.3730035e+11 </wgt>
<wgt id='1523'> +3.3932796e+11 </wgt>
<wgt id='1524'> +3.3672788e+11 </wgt>
<wgt id='1525'> +3.3603778e+11 </wgt>
<wgt id='1526'> +3.3863052e+11 </wgt>
<wgt id='1527'> +3.3571208e+11 </wgt>
<wgt id='1528'> +3.2802715e+11 </wgt>
<wgt id='1529'> +3.4383702e+11 </wgt>
<wgt id='1530'> +3.0767746e+11 </wgt>
<wgt id='1531'> +3.5743607e+11 </wgt>
<wgt id='1532'> +3.6817805e+11 </wgt>
<wgt id='1533'> +3.5174376e+11 </wgt>
<wgt id='1534'> +3.5272429e+11 </wgt>
<wgt id='1535'> +3.6238335e+11 </wgt>
<wgt id='1536'> +3.4518530e+11 </wgt>
<wgt id='1537'> +3.6975382e+11 </wgt>
<wgt id='1538'> +3.5121633e+11 </wgt>
<wgt id='1539'> +3.6711993e+11 </wgt>
<wgt id='1540'> +3.6717582e+11 </wgt>
<wgt id='1541'> +3.6178006e+11 </wgt>
<wgt id='1542'> +3.6104933e+11 </wgt>
<wgt id='1543'> +3.6471993e+11 </wgt>
<wgt id='1544'> +3.5277595e+11 </wgt>
<wgt id='1545'> +3.5544339e+11 </wgt>
<wgt id='1546'> +3.5455129e+11 </wgt>
<wgt id='1547'> +3.5956307e+11 </wgt>
<wgt id='1548'> +3.5844915e+11 </wgt>
<wgt id='1549'> +3.5431628e+11 </wgt>
<wgt id='1550'> +3.6152899e+11 </wgt>
<wgt id='1551'> +3.6019044e+11 </wgt>
<wgt id='1552'> +3.5859088e+11 </wgt>
<wgt id='1553'> +3.7215458e+11 </wgt>
<wgt id='1554'> +3.5978381e+11 </wgt>
<wgt id='1555'> +3.5654250e+11 </wgt>
<wgt id='1556'> +3.6176764e+11 </wgt>
<wgt id='1557'> +3.5805988e+11 </wgt>
<wgt id='1558'> +3.5675904e+11 </wgt>
<wgt id='1559'> +3.5768363e+11 </wgt>
<wgt id='1560'> +3.6016997e+11 </wgt>
<wgt id='1561'> +3.5620814e+11 </wgt>
<wgt id='1562'> +3.4959401e+11 </wgt>
<wgt id='1563'> +3.5811066e+11 </wgt>
<wgt id='1564'> +3.5680890e+11 </wgt>
<wgt id='1565'> +3.6634545e+11 </wgt>
<wgt id='1566'> +3.5717638e+11 </wgt>
<wgt id='1567'> +3.5093412e+11 </wgt>
<wgt id='1568'> +3.5702278e+11 </wgt>
<wgt id='1569'> +3.5725391e+11 </wgt>
<wgt id='1570'> +3.6606603e+11 </wgt>
<wgt id='1571'> +3.5512640e+11 </wgt>
<wgt id='1572'> +3.5288303e+11 </wgt>
<wgt id='1573'> +3.7110130e+11 </wgt>
<wgt id='1574'> +2.2083940e+11 </wgt>
<wgt id='1575'> +2.2089110e+11 </wgt>
<wgt id='1576'> +2.2076922e+11 </wgt>
<wgt id='1577'> +2.2085556e+11 </wgt>
<wgt id='1578'> +2.2134550e+11 </wgt>
<wgt id='1579'> +2.2145606e+11 </wgt>
<wgt id='1580'> +2.2121740e+11 </wgt>
<wgt id='1581'> +2.2075420e+11 </wgt>
<wgt id='1582'> +2.2056215e+11 </wgt>
<wgt id='1583'> +2.2028956e+11 </wgt>
<wgt id='1584'> +2.2138549e+11 </wgt>
<wgt id='1585'> +2.2135766e+11 </wgt>
<wgt id='1586'> +2.2054827e+11 </wgt>
<wgt id='1587'> +2.2050801e+11 </wgt>
<wgt id='1588'> +2.2018523e+11 </wgt>
<wgt id='1589'> +2.2033851e+11 </wgt>
<wgt id='1590'> +2.2063728e+11 </wgt>
<wgt id='1591'> +2.2089921e+11 </wgt>
<wgt id='1592'> +2.2010371e+11 </wgt>
<wgt id='1593'> +2.1952146e+11 </wgt>
<wgt id='1594'> +2.2228557e+11 </wgt>
<wgt id='1595'> +2.1804378e+11 </wgt>
<wgt id='1596'> +2.2582219e+11 </wgt>
<wgt id='1597'> +2.2247854e+11 </wgt>
<wgt id='1598'> +2.2234804e+11 </wgt>
<wgt id='1599'> +2.1765185e+11 </wgt>
<wgt id='1600'> +2.2609060e+11 </wgt>
<wgt id='1601'> +2.2289230e+11 </wgt>
<wgt id='1602'> +2.2143193e+11 </wgt>
<wgt id='1603'> +2.3998194e+11 </wgt>
<wgt id='1604'> +2.2038705e+11 </wgt>
</rwgt>
</event>
<event>
 9      1 +2.8343000e+11 1.39998500e+03 7.81738600e-03 7.88882100e-02
       21 -1    0    0  504  503 +0.0000000000e+00 +0.0000000000e+00 +3.8935679249e+02 3.8935679249e+02 0.0000000000e+00 0.0000e+00 -1.0000e+00
       21 -1    0    0  503  504 -0.0000000000e+00 -0.0000000000e+00 -1.2584590216e+03 1.2584590216e+03 0.0000000000e+00 0.0000e+00 -1.0000e+00
       45  2    1    2    0    0 +0.0000000000e+00 -1.4210854715e-14 -8.6910222915e+02 1.6478158141e+03 1.3999850973e+03 0.0000e+00 0.0000e+00
       25  2    3    3    0    0 +5.6136935502e+02 +1.2029912704e+02 +1.7396385490e+01 5.8782206295e+02 1.2499884296e+02 0.0000e+00 0.0000e+00
       35  2    3    3    0    0 -5.6136935502e+02 -1.2029912704e+02 -8.8649861464e+02 1.0599937512e+03 8.9997366866e+01 0.0000e+00 0.0000e+00
        5  1    5    5  501    0 -5.2632264701e+02 -1.1207292697e+02 -7.8104849738e+02 9.4848847266e+02 4.2140000000e+00 0.0000e+00 -1.0000e+00
       -5  1    5    5    0  501 -3.5046708012e+01 -8.2262000680e+00 -1.0545011725e+02 1.1150527851e+02 4.2140000000e+00 0.0000e+00 -1.0000e+00
        5  1    4    4  502    0 +1.3446831518e+02 +8.4425563063e+01 -3.7397280707e+00 1.5887462619e+02 4.2140000000e+00 0.0000e+00 -1.0000e+00
       -5  1    4    4    0  502 +4.2690103984e+02 +3.5873563978e+01 +2.1136113561e+01 4.2894743676e+02 4.2140000000e+00 0.0000e+00 -1.0000e+00
<mgrwt>
<rscale>  0 0.13999851E+04</rscale>
<asrwt>0</asrwt>
<pdfrwt beam="1">  1       21 0.59901046E-01 0.13999851E+04</pdfrwt>
<pdfrwt beam="2">  1       21 0.19360908E+00 0.13999851E+04</pdfrwt>
<totfact> 0.26407101E+02</totfact>
</mgrwt>
<rwgt>
<wgt id='1001'> +2.8343000e+11 </wgt>
<wgt id='1002'> +2.9232672e+11 </wgt>
<wgt id='1003'> +2.9231699e+11 </wgt>
<wgt id='1004'> +3.2958984e+11 </wgt>
<wgt id='1005'> +2.8343000e+11 </wgt>
<wgt id='1006'> +2.8343000e+11 </wgt>
<wgt id='1007'> +2.9232672e+11 </wgt>
<wgt id='1008'> +2.9231699e+11 </wgt>
<wgt id='1009'> +3.2958984e+11 </wgt>
<wgt id='1010'> +2.8343000e+11 </wgt>
<wgt id='1011'> +2.8343000e+11 </wgt>
<wgt id='1012'> +2.9232672e+11 </wgt>
<wgt id='1013'> +2.9231699e+11 </wgt>
<wgt id='1014'> +3.2958984e+11 </wgt>
<wgt id='1015'> +2.8343000e+11 </wgt>
<wgt id='1016'> +2.5379296e+11 </wgt>
<wgt id='1017'> +2.6128358e+11 </wgt>
<wgt id='1018'> +2.6127541e+11 </wgt>
<wgt id='1019'> +2.9231699e+11 </wgt>
<wgt id='1020'> +2.5379296e+11 </wgt>
<wgt id='1021'> +2.5379296e+11 </wgt>
<wgt id='1022'> +2.6128358e+11 </wgt>
<wgt id='1023'> +2.6127541e+11 </wgt>
<wgt id='1024'> +2.9231699e+11 </wgt>
<wgt id='1025'> +2.5379296e+11 </wgt>
<wgt id='1026'> +2.5379296e+11 </wgt>
<wgt id='1027'> +2.6128358e+11 </wgt>
<wgt id='1028'> +2.6127541e+11 </wgt>
<wgt id='1029'> +2.9231699e+11 </wgt>
<wgt id='1030'> +2.5379296e+11 </wgt>
<wgt id='1031'> +3.1887867e+11 </wgt>
<wgt id='1032'> +3.2960158e+11 </wgt>
<wgt id='1033'> +3.2958984e+11 </wgt>
<wgt id='1034'> +3.7473616e+11 </wgt>
<wgt id='1035'> +3.1887867e+11 </wgt>
<wgt id='1036'> +3.1887867e+11 </wgt>
<wgt id='1037'> +3.2960158e+11 </wgt>
<wgt id='1038'> +3.2958984e+11 </wgt>
<wgt id='1039'> +3.7473616e+11 </wgt>
<wgt id='1040'> +3.1887867e+11 </wgt>
<wgt id='1041'> +3.1887867e+11 </wgt>
<wgt id='1042'> +3.2960158e+11 </wgt>
<wgt id='1043'> +3.2958984e+11 </wgt>
<wgt id='1044'> +3.7473616e+11 </wgt>
<wgt id='1045'> +3.1887867e+11 </wgt>
<wgt id='1046'> +2.8343000e+11 </wgt>
<wgt id='1047'> +2.8343000e+11 </wgt>
<wgt id='1048'> +2.8343000e+11 </wgt>
<wgt id='1049'> +2.8293922e+11 </wgt>
<wgt id='1050'> +2.8321718e+11 </wgt>
<wgt id='1051'> +2.8330865e+11 </wgt>
<wgt id='1052'> +2.8426375e+11 </wgt>
<wgt id='1053'> +2.8162713e+11 </wgt>
<wgt id='1054'> +2.8374649e+11 </wgt>
<wgt id='1055'> +2.8216862e+11 </wgt>
<wgt id='1056'> +2.8215342e+11 </wgt>
<wgt id='1057'> +2.8309326e+11 </wgt>
<wgt id='1058'> +2.8270405e+11 </wgt>
<wgt id='1059'> +2.8536352e+11 </wgt>
<wgt id='1060'> +2.8377868e+11 </wgt>
<wgt id='1061'> +2.8395833e+11 </wgt>
<wgt id='1062'> +2.8430255e+11 </wgt>
<wgt id='1063'> +2.8463961e+11 </wgt>
<wgt id='1064'> +2.8405502e+11 </wgt>
<wgt id='1065'> +2.8472248e+11 </wgt>
<wgt id='1066'> +2.8136701e+11 </wgt>
<wgt id='1067'> +2.8214001e+11 </wgt>
<wgt id='1068'> +2.8361041e+11 </wgt>
<wgt id='1069'> +2.8256246e+11 </wgt>
<wgt id='1070'> +2.8403548e+11 </wgt>
<wgt id='1071'> +2.8278050e+11 </wgt>
<wgt id='1072'> +2.8304330e+11 </wgt>
<wgt id='1073'> +2.8277823e+11 </wgt>
<wgt id='1074'> +2.8280584e+11 </wgt>
<wgt id='1075'> +2.8418971e+11 </wgt>
<wgt id='1076'> +2.8152653e+11 </wgt>
<wgt id='1077'> +2.8202150e+11 </wgt>
<wgt id='1078'> +2.8413821e+11 </wgt>
<wgt id='1079'> +2.8220400e+11 </wgt>
<wgt id='1080'> +2.8312849e+11 </wgt>
<wgt id='1081'> +2.8297324e+11 </wgt>
<wgt id='1082'> +2.8223336e+11 </wgt>
<wgt id='1083'> +2.8427352e+11 </wgt>
<wgt id='1084'> +2.8397663e+11 </wgt>
<wgt id='1085'> +2.8272581e+11 </wgt>
<wgt id='1086'> +2.8327401e+11 </wgt>
<wgt id='1087'> +2.8334149e+11 </wgt>
<wgt id='1088'> +2.8296771e+11 </wgt>
<wgt id='1089'> +2.8251854e+11 </wgt>
<wgt id='1090'> +2.8402729e+11 </wgt>
<wgt id='1091'> +2.8357281e+11 </wgt>
<wgt id='1092'> +2.8366576e+11 </wgt>
<wgt id='1093'> +2.8348347e+11 </wgt>
<wgt id='1094'> +2.8241442e+11 </wgt>
<wgt id='1095'> +2.8364989e+11 </wgt>
<wgt id='1096'> +2.8342228e+11 </wgt>
<wgt id='1097'> +2.8288237e+11 </wgt>
<wgt id='1098'> +2.8318018e+11 </wgt>
<wgt id='1099'> +2.8322466e+11 </wgt>
<wgt id='1100'> +2.8404923e+11 </wgt>
<wgt id='1101'> +2.8350861e+11 </wgt>
<wgt id='1102'> +2.8334277e+11 </wgt>
<wgt id='1103'> +2.8280030e+11 </wgt>
<wgt id='1104'> +2.8324352e+11 </wgt>
<wgt id='1105'> +2.8351484e+11 </wgt>
<wgt id='1106'> +2.8377036e+11 </wgt>
<wgt id='1107'> +2.8360163e+11 </wgt>
<wgt id='1108'> +2.8322600e+11 </wgt>
<wgt id='1109'> +2.8326821e+11 </wgt>
<wgt id='1110'> +2.8367089e+11 </wgt>
<wgt id='1111'> +2.8365115e+11 </wgt>
<wgt id='1112'> +2.8335561e+11 </wgt>
<wgt id='1113'> +2.8376973e+11 </wgt>
<wgt id='1114'> +2.8314194e+11 </wgt>
<wgt id='1115'> +2.8303804e+11 </wgt>
<wgt id='1116'> +2.8403416e+11 </wgt>
<wgt id='1117'> +2.8335904e+11 </wgt>
<wgt id='1118'> +2.8370219e+11 </wgt>
<wgt id='1119'> +2.8306931e+11 </wgt>
<wgt id='1120'> +2.8312001e+11 </wgt>
<wgt id='1121'> +2.8350853e+11 </wgt>
<wgt id='1122'> +2.8310926e+11 </wgt>
<wgt id='1123'> +2.8337749e+11 </wgt>
<wgt id='1124'> +2.8345245e+11 </wgt>
<wgt id='1125'> +2.8362695e+11 </wgt>
<wgt id='1126'> +2.8355152e+11 </wgt>
<wgt id='1127'> +2.8328135e+11 </wgt>
<wgt id='1128'> +2.8339609e+11 </wgt>
<wgt id='1129'> +2.8328462e+11 </wgt>
<wgt id='1130'> +2.8346074e+11 </wgt>
<wgt id='1131'> +2.8390990e+11 </wgt>
<wgt id='1132'> +2.8333087e+11 </wgt>
<wgt id='1133'> +2.8356087e+11 </wgt>
<wgt id='1134'> +2.8341242e+11 </wgt>
<wgt id='1135'> +2.8346237e+11 </wgt>
<wgt id='1136'> +2.8333214e+11 </wgt>
<wgt id='1137'> +2.8322288e+11 </wgt>
<wgt id='1138'> +2.8357513e+11 </wgt>
<wgt id='1139'> +2.8351623e+11 </wgt>
<wgt id='1140'> +2.8369256e+11 </wgt>
<wgt id='1141'> +2.8319968e+11 </wgt>
<wgt id='1142'> +2.8348254e+11 </wgt>
<wgt id='1143'> +2.8362000e+11 </wgt>
<wgt id='1144'> +2.8332672e+11 </wgt>
<wgt id='1145'> +2.8358260e+11 </wgt>
<wgt id='1146'> +2.8348509e+11 </wgt>
<wgt id='1147'> +2.8348755e+11 </wgt>
<wgt id='1148'> +2.8343000e+11 </wgt>
<wgt id='1149'> +2.8343000e+11 </wgt>
<wgt id='1150'> +2.9721150e+11 </wgt>
<wgt id='1151'> +2.7672606e+11 </wgt>
<wgt id='1152'> +2.7467032e+11 </wgt>
<wgt id='1153'> +2.8570716e+11 </wgt>
<wgt id='1154'> +2.8080204e+11 </wgt>
<wgt id='1155'> +2.9471233e+11 </wgt>
<wgt id='1156'> +2.7866115e+11 </wgt>
<wgt id='1157'> +2.7493731e+11 </wgt>
<wgt id='1158'> +2.7701671e+11 </wgt>
<wgt id='1159'> +2.9908831e+11 </wgt>
<wgt id='1160'> +2.8565536e+11 </wgt>
<wgt id='1161'> +2.8987074e+11 </wgt>
<wgt id='1162'> +2.8595770e+11 </wgt>
<wgt id='1163'> +2.8669570e+11 </wgt>
<wgt id='1164'> +2.7392907e+11 </wgt>
<wgt id='1165'> +2.7800898e+11 </wgt>
<wgt id='1166'> +2.8316187e+11 </wgt>
<wgt id='1167'> +2.7805429e+11 </wgt>
<wgt id='1168'> +2.7388877e+11 </wgt>
<wgt id='1169'> +2.7609256e+11 </wgt>
<wgt id='1170'> +2.8451255e+11 </wgt>
<wgt id='1171'> +2.7321576e+11 </wgt>
<wgt id='1172'> +2.7402568e+11 </wgt>
<wgt id='1173'> +2.8557909e+11 </wgt>
<wgt id='1174'> +2.7669663e+11 </wgt>
<wgt id='1175'> +2.7873682e+11 </wgt>
<wgt id='1176'> +2.8714202e+11 </wgt>
<wgt id='1177'> +2.7851998e+11 </wgt>
<wgt id='1178'> +2.8473420e+11 </wgt>
<wgt id='1179'> +2.8507284e+11 </wgt>
<wgt id='1180'> +2.8251263e+11 </wgt>
<wgt id='1181'> +2.9265603e+11 </wgt>
<wgt id='1182'> +2.8035567e+11 </wgt>
<wgt id='1183'> +2.8900939e+11 </wgt>
<wgt id='1184'> +2.8003276e+11 </wgt>
<wgt id='1185'> +2.8886576e+11 </wgt>
<wgt id='1186'> +2.7818710e+11 </wgt>
<wgt id='1187'> +2.8462674e+11 </wgt>
<wgt id='1188'> +2.8958197e+11 </wgt>
<wgt id='1189'> +2.8171618e+11 </wgt>
<wgt id='1190'> +2.8040874e+11 </wgt>
<wgt id='1191'> +2.9026717e+11 </wgt>
<wgt id='1192'> +2.8803491e+11 </wgt>
<wgt id='1193'> +2.8975438e+11 </wgt>
<wgt id='1194'> +2.7922968e+11 </wgt>
<wgt id='1195'> +2.8585320e+11 </wgt>
<wgt id='1196'> +2.9125966e+11 </wgt>
<wgt id='1197'> +2.9063238e+11 </wgt>
<wgt id='1198'> +2.8640110e+11 </wgt>
<wgt id='1199'> +2.8778213e+11 </wgt>
<wgt id='1200'> +2.8949164e+11 </wgt>
<wgt id='1201'> +2.8150195e+11 </wgt>
<wgt id='1202'> +2.8559491e+11 </wgt>
<wgt id='1203'> +2.8336279e+11 </wgt>
<wgt id='1204'> +2.8112860e+11 </wgt>
<wgt id='1205'> +2.8427688e+11 </wgt>
<wgt id='1206'> +2.8053205e+11 </wgt>
<wgt id='1207'> +2.9117436e+11 </wgt>
<wgt id='1208'> +2.7070806e+11 </wgt>
<wgt id='1209'> +2.8454764e+11 </wgt>
<wgt id='1210'> +2.8699716e+11 </wgt>
<wgt id='1211'> +2.8251956e+11 </wgt>
<wgt id='1212'> +2.8304844e+11 </wgt>
<wgt id='1213'> +2.8736417e+11 </wgt>
<wgt id='1214'> +2.7855821e+11 </wgt>
<wgt id='1215'> +2.8135083e+11 </wgt>
<wgt id='1216'> +2.7841671e+11 </wgt>
<wgt id='1217'> +2.7955529e+11 </wgt>
<wgt id='1218'> +2.8505841e+11 </wgt>
<wgt id='1219'> +2.9352061e+11 </wgt>
<wgt id='1220'> +2.8045136e+11 </wgt>
<wgt id='1221'> +2.7697619e+11 </wgt>
<wgt id='1222'> +2.7866084e+11 </wgt>
<wgt id='1223'> +2.7367432e+11 </wgt>
<wgt id='1224'> +2.8242680e+11 </wgt>
<wgt id='1225'> +2.8519369e+11 </wgt>
<wgt id='1226'> +2.8574233e+11 </wgt>
<wgt id='1227'> +2.8093704e+11 </wgt>
<wgt id='1228'> +2.8246461e+11 </wgt>
<wgt id='1229'> +3.0026720e+11 </wgt>
<wgt id='1230'> +2.8861572e+11 </wgt>
<wgt id='1231'> +2.7800898e+11 </wgt>
<wgt id='1232'> +2.8752263e+11 </wgt>
<wgt id='1233'> +2.7642302e+11 </wgt>
<wgt id='1234'> +2.7829928e+11 </wgt>
<wgt id='1235'> +2.9986353e+11 </wgt>
<wgt id='1236'> +2.7857841e+11 </wgt>
<wgt id='1237'> +2.8990823e+11 </wgt>
<wgt id='1238'> +2.8045755e+11 </wgt>
<wgt id='1239'> +2.8608133e+11 </wgt>
<wgt id='1240'> +2.7639426e+11 </wgt>
<wgt id='1241'> +2.8762905e+11 </wgt>
<wgt id='1242'> +2.8037119e+11 </wgt>
<wgt id='1243'> +2.8461888e+11 </wgt>
<wgt id='1244'> +2.8954400e+11 </wgt>
<wgt id='1245'> +2.7681217e+11 </wgt>
<wgt id='1246'> +3.0403952e+11 </wgt>
<wgt id='1247'> +2.8135472e+11 </wgt>
<wgt id='1248'> +2.7322958e+11 </wgt>
<wgt id='1249'> +2.7552054e+11 </wgt>
<wgt id='1250'> +2.9373753e+11 </wgt>
<wgt id='1251'> +3.0171208e+11 </wgt>
<wgt id='1252'> +2.8805362e+11 </wgt>
<wgt id='1253'> +2.9204235e+11 </wgt>
<wgt id='1254'> +2.8939368e+11 </wgt>
<wgt id='1255'> +3.0351531e+11 </wgt>
<wgt id='1256'> +3.0356965e+11 </wgt>
<wgt id='1257'> +3.0040051e+11 </wgt>
<wgt id='1258'> +2.9258419e+11 </wgt>
<wgt id='1259'> +3.0434526e+11 </wgt>
<wgt id='1260'> +3.2809233e+11 </wgt>
<wgt id='1261'> +3.1498305e+11 </wgt>
<wgt id='1262'> +2.9418839e+11 </wgt>
<wgt id='1263'> +2.9938960e+11 </wgt>
<wgt id='1264'> +3.0234008e+11 </wgt>
<wgt id='1265'> +2.9344117e+11 </wgt>
<wgt id='1266'> +3.0401141e+11 </wgt>
<wgt id='1267'> +3.4630278e+11 </wgt>
<wgt id='1268'> +2.8898473e+11 </wgt>
<wgt id='1269'> +2.8652974e+11 </wgt>
<wgt id='1270'> +3.0465393e+11 </wgt>
<wgt id='1271'> +2.6685195e+11 </wgt>
<wgt id='1272'> +2.9332832e+11 </wgt>
<wgt id='1273'> +2.9062336e+11 </wgt>
<wgt id='1274'> +2.8661397e+11 </wgt>
<wgt id='1275'> +2.9366054e+11 </wgt>
<wgt id='1276'> +3.0311857e+11 </wgt>
<wgt id='1277'> +2.9826861e+11 </wgt>
<wgt id='1278'> +2.9892550e+11 </wgt>
<wgt id='1279'> +2.7925294e+11 </wgt>
<wgt id='1280'> +2.8577920e+11 </wgt>
<wgt id='1281'> +2.8495198e+11 </wgt>
<wgt id='1282'> +2.9486617e+11 </wgt>
<wgt id='1283'> +3.1011433e+11 </wgt>
<wgt id='1284'> +3.0824625e+11 </wgt>
<wgt id='1285'> +3.0791605e+11 </wgt>
<wgt id='1286'> +3.3061705e+11 </wgt>
<wgt id='1287'> +3.1003205e+11 </wgt>
<wgt id='1288'> +3.3531572e+11 </wgt>
<wgt id='1289'> +3.1500754e+11 </wgt>
<wgt id='1290'> +3.1262991e+11 </wgt>
<wgt id='1291'> +2.7840774e+11 </wgt>
<wgt id='1292'> +3.0309136e+11 </wgt>
<wgt id='1293'> +3.0318406e+11 </wgt>
<wgt id='1294'> +3.2406860e+11 </wgt>
<wgt id='1295'> +3.0993463e+11 </wgt>
<wgt id='1296'> +3.2961927e+11 </wgt>
<wgt id='1297'> +2.9039127e+11 </wgt>
<wgt id='1298'> +2.8887559e+11 </wgt>
<wgt id='1299'> +3.0407725e+11 </wgt>
<wgt id='1300'> +2.8271383e+11 </wgt>
<wgt id='1301'> +2.7940565e+11 </wgt>
<wgt id='1302'> +2.8199307e+11 </wgt>
<wgt id='1303'> +3.0358445e+11 </wgt>
<wgt id='1304'> +3.2593162e+11 </wgt>
<wgt id='1305'> +2.9818986e+11 </wgt>
<wgt id='1306'> +3.0598816e+11 </wgt>
<wgt id='1307'> +2.8800196e+11 </wgt>
<wgt id='1308'> +3.3085583e+11 </wgt>
<wgt id='1309'> +3.0079338e+11 </wgt>
<wgt id='1310'> +3.0345285e+11 </wgt>
<wgt id='1311'> +2.9829376e+11 </wgt>
<wgt id='1312'> +3.1394385e+11 </wgt>
<wgt id='1313'> +3.0384293e+11 </wgt>
<wgt id='1314'> +2.9387235e+11 </wgt>
<wgt id='1315'> +2.8756702e+11 </wgt>
<wgt id='1316'> +2.9972945e+11 </wgt>
<wgt id='1317'> +3.1220594e+11 </wgt>
<wgt id='1318'> +2.9128025e+11 </wgt>
<wgt id='1319'> +2.9685804e+11 </wgt>
<wgt id='1320'> +3.1736277e+11 </wgt>
<wgt id='1321'> +3.0215815e+11 </wgt>
<wgt id='1322'> +3.1078314e+11 </wgt>
<wgt id='1323'> +2.8901964e+11 </wgt>
<wgt id='1324'> +3.0835389e+11 </wgt>
<wgt id='1325'> +3.1278249e+11 </wgt>
<wgt id='1326'> +3.0921943e+11 </wgt>
<wgt id='1327'> +3.1287415e+11 </wgt>
<wgt id='1328'> +2.9797571e+11 </wgt>
<wgt id='1329'> +2.9770091e+11 </wgt>
<wgt id='1330'> +2.8493001e+11 </wgt>
<wgt id='1331'> +3.2307987e+11 </wgt>
<wgt id='1332'> +2.9740290e+11 </wgt>
<wgt id='1333'> +3.0206911e+11 </wgt>
<wgt id='1334'> +3.1806884e+11 </wgt>
<wgt id='1335'> +2.9212570e+11 </wgt>
<wgt id='1336'> +3.1626601e+11 </wgt>
<wgt id='1337'> +3.0918572e+11 </wgt>
<wgt id='1338'> +2.8710269e+11 </wgt>
<wgt id='1339'> +3.1451378e+11 </wgt>
<wgt id='1340'> +3.0926744e+11 </wgt>
<wgt id='1341'> +3.2390924e+11 </wgt>
<wgt id='1342'> +3.0256329e+11 </wgt>
<wgt id='1343'> +3.0885497e+11 </wgt>
<wgt id='1344'> +3.1694973e+11 </wgt>
<wgt id='1345'> +2.6324599e+11 </wgt>
<wgt id='1346'> +3.0441714e+11 </wgt>
<wgt id='1347'> +2.9285468e+11 </wgt>
<wgt id='1348'> +2.9041815e+11 </wgt>
<wgt id='1349'> +2.8771430e+11 </wgt>
<wgt id='1350'> +3.0958468e+11 </wgt>
<wgt id='1351'> +2.9113393e+11 </wgt>
<wgt id='1352'> +3.0389551e+11 </wgt>
<wgt id='1353'> +3.0098169e+11 </wgt>
<wgt id='1354'> +3.1007140e+11 </wgt>
<wgt id='1355'> +2.7859416e+11 </wgt>
<wgt id='1356'> +2.8119508e+11 </wgt>
<wgt id='1357'> +2.7906415e+11 </wgt>
<wgt id='1358'> +2.7701956e+11 </wgt>
<wgt id='1359'> +2.7782072e+11 </wgt>
<wgt id='1360'> +2.7376384e+11 </wgt>
<wgt id='1361'> +2.7732236e+11 </wgt>
<wgt id='1362'> +2.8598375e+11 </wgt>
<wgt id='1363'> +2.7657178e+11 </wgt>
<wgt id='1364'> +2.8381887e+11 </wgt>
<wgt id='1365'> +2.7648968e+11 </wgt>
<wgt id='1366'> +2.7503291e+11 </wgt>
<wgt id='1367'> +2.7823532e+11 </wgt>
<wgt id='1368'> +2.7920792e+11 </wgt>
<wgt id='1369'> +2.8182838e+11 </wgt>
<wgt id='1370'> +2.7534572e+11 </wgt>
<wgt id='1371'> +2.7886025e+11 </wgt>
<wgt id='1372'> +2.7982589e+11 </wgt>
<wgt id='1373'> +2.8187953e+11 </wgt>
<wgt id='1374'> +2.7168818e+11 </wgt>
<wgt id='1375'> +2.7981316e+11 </wgt>
<wgt id='1376'> +2.7774411e+11 </wgt>
<wgt id='1377'> +2.7909193e+11 </wgt>
<wgt id='1378'> +2.7862743e+11 </wgt>
<wgt id='1379'> +2.7702421e+11 </wgt>
<wgt id='1380'> +2.7607142e+11 </wgt>
<wgt id='1381'> +2.8305513e+11 </wgt>
<wgt id='1382'> +2.7734248e+11 </wgt>
<wgt id='1383'> +2.7603289e+11 </wgt>
<wgt id='1384'> +2.7447082e+11 </wgt>
<wgt id='1385'> +2.7393766e+11 </wgt>
<wgt id='1386'> +2.7677158e+11 </wgt>
<wgt id='1387'> +2.7676763e+11 </wgt>
<wgt id='1388'> +2.7395061e+11 </wgt>
<wgt id='1389'> +2.7732891e+11 </wgt>
<wgt id='1390'> +2.8086503e+11 </wgt>
<wgt id='1391'> +2.7740530e+11 </wgt>
<wgt id='1392'> +2.7496532e+11 </wgt>
<wgt id='1393'> +2.7955312e+11 </wgt>
<wgt id='1394'> +2.7755604e+11 </wgt>
<wgt id='1395'> +2.7357874e+11 </wgt>
<wgt id='1396'> +2.7898184e+11 </wgt>
<wgt id='1397'> +2.7924931e+11 </wgt>
<wgt id='1398'> +2.8179997e+11 </wgt>
<wgt id='1399'> +2.7643924e+11 </wgt>
<wgt id='1400'> +2.7361364e+11 </wgt>
<wgt id='1401'> +2.7933965e+11 </wgt>
<wgt id='1402'> +2.8110867e+11 </wgt>
<wgt id='1403'> +2.8658913e+11 </wgt>
<wgt id='1404'> +2.8144884e+11 </wgt>
<wgt id='1405'> +2.8556326e+11 </wgt>
<wgt id='1406'> +2.8134485e+11 </wgt>
<wgt id='1407'> +2.7916185e+11 </wgt>
<wgt id='1408'> +2.8501262e+11 </wgt>
<wgt id='1409'> +2.7403872e+11 </wgt>
<wgt id='1410'> +2.7130206e+11 </wgt>
<wgt id='1411'> +2.7832477e+11 </wgt>
<wgt id='1412'> +2.7725998e+11 </wgt>
<wgt id='1413'> +2.7972845e+11 </wgt>
<wgt id='1414'> +2.8112015e+11 </wgt>
<wgt id='1415'> +2.7950599e+11 </wgt>
<wgt id='1416'> +2.8013688e+11 </wgt>
<wgt id='1417'> +2.7579849e+11 </wgt>
<wgt id='1418'> +2.7799007e+11 </wgt>
<wgt id='1419'> +2.8215901e+11 </wgt>
<wgt id='1420'> +2.7481940e+11 </wgt>
<wgt id='1421'> +2.8508796e+11 </wgt>
<wgt id='1422'> +2.7168069e+11 </wgt>
<wgt id='1423'> +2.8285547e+11 </wgt>
<wgt id='1424'> +2.7934711e+11 </wgt>
<wgt id='1425'> +2.7911583e+11 </wgt>
<wgt id='1426'> +2.8075327e+11 </wgt>
<wgt id='1427'> +2.7746712e+11 </wgt>
<wgt id='1428'> +2.7729453e+11 </wgt>
<wgt id='1429'> +2.7894038e+11 </wgt>
<wgt id='1430'> +2.7503667e+11 </wgt>
<wgt id='1431'> +2.7428363e+11 </wgt>
<wgt id='1432'> +2.7625939e+11 </wgt>
<wgt id='1433'> +2.7505870e+11 </wgt>
<wgt id='1434'> +2.8592040e+11 </wgt>
<wgt id='1435'> +2.7769882e+11 </wgt>
<wgt id='1436'> +2.8244684e+11 </wgt>
<wgt id='1437'> +2.7779630e+11 </wgt>
<wgt id='1438'> +2.7815625e+11 </wgt>
<wgt id='1439'> +2.8402260e+11 </wgt>
<wgt id='1440'> +2.8015987e+11 </wgt>
<wgt id='1441'> +2.7520194e+11 </wgt>
<wgt id='1442'> +2.8225503e+11 </wgt>
<wgt id='1443'> +2.7549805e+11 </wgt>
<wgt id='1444'> +2.8282362e+11 </wgt>
<wgt id='1445'> +2.7859468e+11 </wgt>
<wgt id='1446'> +2.8560287e+11 </wgt>
<wgt id='1447'> +2.7731441e+11 </wgt>
<wgt id='1448'> +2.8113783e+11 </wgt>
<wgt id='1449'> +2.8162958e+11 </wgt>
<wgt id='1450'> +2.7797439e+11 </wgt>
<wgt id='1451'> +2.7940058e+11 </wgt>
<wgt id='1452'> +2.8069603e+11 </wgt>
<wgt id='1453'> +2.7987485e+11 </wgt>
<wgt id='1454'> +2.7022559e+11 </wgt>
<wgt id='1455'> +2.7717683e+11 </wgt>
<wgt id='1456'> +2.7728890e+11 </wgt>
<wgt id='1457'> +2.7794329e+11 </wgt>
<wgt id='1458'> +2.8409598e+11 </wgt>
<wgt id='1459'> +3.1116455e+11 </wgt>
<wgt id='1460'> +3.0608493e+11 </wgt>
<wgt id='1461'> +3.6330073e+11 </wgt>
<wgt id='1462'> +3.0016211e+11 </wgt>
<wgt id='1463'> +3.0038744e+11 </wgt>
<wgt id='1464'> +2.9987309e+11 </wgt>
<wgt id='1465'> +3.0022836e+11 </wgt>
<wgt id='1466'> +3.0010158e+11 </wgt>
<wgt id='1467'> +3.0028466e+11 </wgt>
<wgt id='1468'> +2.9996100e+11 </wgt>
<wgt id='1469'> +2.9972842e+11 </wgt>
<wgt id='1470'> +3.0051432e+11 </wgt>
<wgt id='1471'> +3.0061478e+11 </wgt>
<wgt id='1472'> +2.9969583e+11 </wgt>
<wgt id='1473'> +3.0134895e+11 </wgt>
<wgt id='1474'> +2.9902213e+11 </wgt>
<wgt id='1475'> +3.0128766e+11 </wgt>
<wgt id='1476'> +2.9936421e+11 </wgt>
<wgt id='1477'> +2.9961206e+11 </wgt>
<wgt id='1478'> +3.0144717e+11 </wgt>
<wgt id='1479'> +2.9978690e+11 </wgt>
<wgt id='1480'> +3.0042788e+11 </wgt>
<wgt id='1481'> +2.9964191e+11 </wgt>
<wgt id='1482'> +3.0086534e+11 </wgt>
<wgt id='1483'> +3.0023106e+11 </wgt>
<wgt id='1484'> +3.0006682e+11 </wgt>
<wgt id='1485'> +3.0037217e+11 </wgt>
<wgt id='1486'> +2.9965617e+11 </wgt>
<wgt id='1487'> +3.0044226e+11 </wgt>
<wgt id='1488'> +2.9981228e+11 </wgt>
<wgt id='1489'> +2.9979235e+11 </wgt>
<wgt id='1490'> +3.0116483e+11 </wgt>
<wgt id='1491'> +3.0515408e+11 </wgt>
<wgt id='1492'> +2.9738000e+11 </wgt>
<wgt id='1493'> +2.9653641e+11 </wgt>
<wgt id='1494'> +3.1153332e+11 </wgt>
<wgt id='1495'> +2.9938136e+11 </wgt>
<wgt id='1496'> +3.0100037e+11 </wgt>
<wgt id='1497'> +3.0036686e+11 </wgt>
<wgt id='1498'> +2.9988240e+11 </wgt>
<wgt id='1499'> +3.0219103e+11 </wgt>
<wgt id='1500'> +2.9905380e+11 </wgt>
<wgt id='1501'> +3.0054632e+11 </wgt>
<wgt id='1502'> +2.9914805e+11 </wgt>
<wgt id='1503'> +2.9625459e+11 </wgt>
<wgt id='1504'> +3.0447469e+11 </wgt>
<wgt id='1505'> +3.0093833e+11 </wgt>
<wgt id='1506'> +2.9940036e+11 </wgt>
<wgt id='1507'> +3.0290110e+11 </wgt>
<wgt id='1508'> +2.9620809e+11 </wgt>
<wgt id='1509'> +3.0088639e+11 </wgt>
<wgt id='1510'> +2.9704294e+11 </wgt>
<wgt id='1511'> +3.0136998e+11 </wgt>
<wgt id='1512'> +2.9979321e+11 </wgt>
<wgt id='1513'> +3.0002307e+11 </wgt>
<wgt id='1514'> +3.0032545e+11 </wgt>
<wgt id='1515'> +3.0350635e+11 </wgt>
<wgt id='1516'> +3.0000566e+11 </wgt>
<wgt id='1517'> +2.9968366e+11 </wgt>
<wgt id='1518'> +3.0075225e+11 </wgt>
<wgt id='1519'> +2.9827230e+11 </wgt>
<wgt id='1520'> +3.0150227e+11 </wgt>
<wgt id='1521'> +2.9906497e+11 </wgt>
<wgt id='1522'> +3.0078867e+11 </wgt>
<wgt id='1523'> +3.0137512e+11 </wgt>
<wgt id='1524'> +3.0175006e+11 </wgt>
<wgt id='1525'> +3.0102375e+11 </wgt>
<wgt id='1526'> +3.0144698e+11 </wgt>
<wgt id='1527'> +3.0016211e+11 </wgt>
<wgt id='1528'> +2.9933061e+11 </wgt>
<wgt id='1529'> +3.0063619e+11 </wgt>
<wgt id='1530'> +2.9628832e+11 </wgt>
<wgt id='1531'> +3.0159645e+11 </wgt>
<wgt id='1532'> +3.0043835e+11 </wgt>
<wgt id='1533'> +2.9635809e+11 </wgt>
<wgt id='1534'> +3.0002782e+11 </wgt>
<wgt id='1535'> +3.0461792e+11 </wgt>
<wgt id='1536'> +2.9852621e+11 </wgt>
<wgt id='1537'> +3.0266999e+11 </wgt>
<wgt id='1538'> +2.9789639e+11 </wgt>
<wgt id='1539'> +3.0691055e+11 </wgt>
<wgt id='1540'> +3.0221489e+11 </wgt>
<wgt id='1541'> +3.0292925e+11 </wgt>
<wgt id='1542'> +3.0167386e+11 </wgt>
<wgt id='1543'> +3.0319719e+11 </wgt>
<wgt id='1544'> +2.9988407e+11 </wgt>
<wgt id='1545'> +2.9957021e+11 </wgt>
<wgt id='1546'> +2.9775196e+11 </wgt>
<wgt id='1547'> +3.0390515e+11 </wgt>
<wgt id='1548'> +3.0018300e+11 </wgt>
<wgt id='1549'> +2.9810130e+11 </wgt>
<wgt id='1550'> +3.0332259e+11 </wgt>
<wgt id='1551'> +3.0220776e+11 </wgt>
<wgt id='1552'> +3.0152445e+11 </wgt>
<wgt id='1553'> +3.0539955e+11 </wgt>
<wgt id='1554'> +3.0169788e+11 </wgt>
<wgt id='1555'> +3.0249155e+11 </wgt>
<wgt id='1556'> +3.0373229e+11 </wgt>
<wgt id='1557'> +3.0112080e+11 </wgt>
<wgt id='1558'> +3.0190313e+11 </wgt>
<wgt id='1559'> +2.9905503e+11 </wgt>
<wgt id='1560'> +3.0039357e+11 </wgt>
<wgt id='1561'> +2.9914333e+11 </wgt>
<wgt id='1562'> +2.9999682e+11 </wgt>
<wgt id='1563'> +3.0180919e+11 </wgt>
<wgt id='1564'> +3.0126514e+11 </wgt>
<wgt id='1565'> +3.0420065e+11 </wgt>
<wgt id='1566'> +3.0162912e+11 </wgt>
<wgt id='1567'> +3.0370081e+11 </wgt>
<wgt id='1568'> +3.0146853e+11 </wgt>
<wgt id='1569'> +3.0105778e+11 </wgt>
<wgt id='1570'> +3.0760850e+11 </wgt>
<wgt id='1571'> +3.0161905e+11 </wgt>
<wgt id='1572'> +3.0350608e+11 </wgt>
<wgt id='1573'> +3.0544690e+11 </wgt>
<wgt id='1574'> +2.5766464e+11 </wgt>
<wgt id='1575'> +2.5773290e+11 </wgt>
<wgt id='1576'> +2.5759625e+11 </wgt>
<wgt id='1577'> +2.5768270e+11 </wgt>
<wgt id='1578'> +2.5825851e+11 </wgt>
<wgt id='1579'> +2.5847810e+11 </wgt>
<wgt id='1580'> +2.5824534e+11 </wgt>
<wgt id='1581'> +2.5715079e+11 </wgt>
<wgt id='1582'> +2.5687337e+11 </wgt>
<wgt id='1583'> +2.5720651e+11 </wgt>
<wgt id='1584'> +2.5823362e+11 </wgt>
<wgt id='1585'> +2.5789823e+11 </wgt>
<wgt id='1586'> +2.5680769e+11 </wgt>
<wgt id='1587'> +2.5698313e+11 </wgt>
<wgt id='1588'> +2.5652594e+11 </wgt>
<wgt id='1589'> +2.5735990e+11 </wgt>
<wgt id='1590'> +2.5750646e+11 </wgt>
<wgt id='1591'> +2.5774243e+11 </wgt>
<wgt id='1592'> +2.5667207e+11 </wgt>
<wgt id='1593'> +2.5662506e+11 </wgt>
<wgt id='1594'> +2.5866691e+11 </wgt>
<wgt id='1595'> +2.5519636e+11 </wgt>
<wgt id='1596'> +2.6176516e+11 </wgt>
<wgt id='1597'> +2.5946840e+11 </wgt>
<wgt id='1598'> +2.5961625e+11 </wgt>
<wgt id='1599'> +2.5470692e+11 </wgt>
<wgt id='1600'> +2.6247114e+11 </wgt>
<wgt id='1601'> +2.5982160e+11 </wgt>
<wgt id='1602'> +2.5771382e+11 </wgt>
<wgt id='1603'> +2.7083087e+11 </wgt>
<wgt id='1604'> +2.5779475e+11 </wgt>
</rwgt>
</event>
<event>
 9      1 +2.8343000e+11 1.40000000e+03 7.81738600e-03 7.88881200e-02
       21 -1    0    0  504  503 +0.0000000000e+00 +0.0000000000e+00 +1.7271973614e+02 1.7271973614e+02 0.0000000000e+00 0.0000e+00 1.0000e+00
       21 -1    0    0  503  504 -0.0000000000e+00 -0.0000000000e+00 -2.8369642925e+03 2.8369642925e+03 0.0000000000e+00 0.0000e+00 1.0000e+00
       45  2    1    2    0    0 +0.0000000000e+00 +5.6843418861e-14 -2.6642445563e+03 3.0096840286e+03 1.3999996058e+03 0.0000e+00 0.0000e+00
       25  2    3    3    0    0 +3.2137823609e+01 -4.2890482075e+02 -1.7327255743e+02 4.8025055017e+02 1.2500010725e+02 0.0000e+00 0.0000e+00
       35  2    3    3    0    0 -3.2137823609e+01 +4.2890482075e+02 -2.4909719989e+03 2.5294334784e+03 9.0000209128e+01 0.0000e+00 0.0000e+00
        5  1    5    5  501    0 -6.8195080949e+00 +1.3836962961e+02 -5.7995895641e+02 5.9629087618e+02 4.2140000000e+00 0.0000e+00 -1.0000e+00
       -5  1    5    5    0  501 -2.5318315514e+01 +2.9053519114e+02 -1.9110130425e+03 1.9331426023e+03 4.2140000000e+00 0.0000e+00 -1.0000e+00
        5  1    4    4  502    0 +5.9965065168e+01 -1.8673603329e+02 -1.2232056210e+02 2.3118441313e+02 4.2140000000e+00 0.0000e+00 1.0000e+00
       -5  1    4    4    0  502 -2.7827241559e+01 -2.4216878746e+02 -5.0951995335e+01 2.4906613704e+02 4.2140000000e+00 0.0000e+00 1.0000e+00
<mgrwt>
<rscale>  0 0.13999996E+04</rscale>
<asrwt>0</asrwt>
<pdfrwt beam="1">  1       21 0.26572270E-01 0.13999996E+04</pdfrwt>
<pdfrwt beam="2">  1       21 0.43645599E+00 0.13999996E+04</pdfrwt>
<totfact> 0.38028782E+01</totfact>
</mgrwt>
<rwgt>
<wgt id='1001'> +2.8343000e+11 </wgt>
<wgt id='1002'> +3.1408120e+11 </wgt>
<wgt id='1003'> +3.1407295e+11 </wgt>
<wgt id='1004'> +3.6833923e+11 </wgt>
<wgt id='1005'> +2.8343000e+11 </wgt>
<wgt id='1006'> +2.8343000e+11 </wgt>
<wgt id='1007'> +3.1408120e+11 </wgt>
<wgt id='1008'> +3.1407295e+11 </wgt>
<wgt id='1009'> +3.6833923e+11 </wgt>
<wgt id='1010'> +2.8343000e+11 </wgt>
<wgt id='1011'> +2.8343000e+11 </wgt>
<wgt id='1012'> +3.1408120e+11 </wgt>
<wgt id='1013'> +3.1407295e+11 </wgt>
<wgt id='1014'> +3.6833923e+11 </wgt>
<wgt id='1015'> +2.8343000e+11 </wgt>
<wgt id='1016'> +2.4606413e+11 </wgt>
<wgt id='1017'> +2.7080468e+11 </wgt>
<wgt id='1018'> +2.7079798e+11 </wgt>
<wgt id='1019'> +3.1407295e+11 </wgt>
<wgt id='1020'> +2.4606413e+11 </wgt>
<wgt id='1021'> +2.4606413e+11 </wgt>
<wgt id='1022'> +2.7080468e+11 </wgt>
<wgt id='1023'> +2.7079798e+11 </wgt>
<wgt id='1024'> +3.1407295e+11 </wgt>
<wgt id='1025'> +2.4606413e+11 </wgt>
<wgt id='1026'> +2.4606413e+11 </wgt>
<wgt id='1027'> +2.7080468e+11 </wgt>
<wgt id='1028'> +2.7079798e+11 </wgt>
<wgt id='1029'> +3.1407295e+11 </wgt>
<wgt id='1030'> +2.4606413e+11 </wgt>
<wgt id='1031'> +3.2971387e+11 </wgt>
<wgt id='1032'> +3.6834981e+11 </wgt>
<wgt id='1033'> +3.6833923e+11 </wgt>
<wgt id='1034'> +4.3750372e+11 </wgt>
<wgt id='1035'> +3.2971387e+11 </wgt>
<wgt id='1036'> +3.2971387e+11 </wgt>
<wgt id='1037'> +3.6834981e+11 </wgt>
<wgt id='1038'> +3.6833923e+11 </wgt>
<wgt id='1039'> +4.3750372e+11 </wgt>
<wgt id='1040'> +3.2971387e+11 </wgt>
<wgt id='1041'> +3.2971387e+11 </wgt>
<wgt id='1042'> +3.6834981e+11 </wgt>
<wgt id='1043'> +3.6833923e+11 </wgt>
<wgt id='1044'> +4.3750372e+11 </wgt>
<wgt id='1045'> +3.2971387e+11 </wgt>
<wgt id='1046'> +2.8343000e+11 </wgt>
<wgt id='1047'> +2.8343000e+11 </wgt>
<wgt id='1048'> +2.8343000e+11 </wgt>
<wgt id='1049'> +2.8081688e+11 </wgt>
<wgt id='1050'> +2.7889492e+11 </wgt>
<wgt id='1051'> +2.8250313e+11 </wgt>
<wgt id='1052'> +2.8231265e+11 </wgt>
<wgt id='1053'> +2.8087272e+11 </wgt>
<wgt id='1054'> +2.8780005e+11 </wgt>
<wgt id='1055'> +2.8132421e+11 </wgt>
<wgt id='1056'> +2.7973289e+11 </wgt>
<wgt id='1057'> +2.8348869e+11 </wgt>
<wgt id='1058'> +2.8498190e+11 </wgt>
<wgt id='1059'> +2.8322683e+11 </wgt>
<wgt id='1060'> +2.8216256e+11 </wgt>
<wgt id='1061'> +2.8535175e+11 </wgt>
<wgt id='1062'> +2.8742326e+11 </wgt>
<wgt id='1063'> +2.8425518e+11 </wgt>
<wgt id='1064'> +2.9061203e+11 </wgt>
<wgt id='1065'> +2.8575024e+11 </wgt>
<wgt id='1066'> +2.8293167e+11 </wgt>
<wgt id='1067'> +2.8962348e+11 </wgt>
<wgt id='1068'> +2.8457412e+11 </wgt>
<wgt id='1069'> +2.7707316e+11 </wgt>
<wgt id='1070'> +2.7590680e+11 </wgt>
<wgt id='1071'> +2.8730059e+11 </wgt>
<wgt id='1072'> +2.7285207e+11 </wgt>
<wgt id='1073'> +2.8734866e+11 </wgt>
<wgt id='1074'> +2.8625181e+11 </wgt>
<wgt id='1075'> +2.8155509e+11 </wgt>
<wgt id='1076'> +2.8568552e+11 </wgt>
<wgt id='1077'> +2.8464080e+11 </wgt>
<wgt id='1078'> +2.6872308e+11 </wgt>
<wgt id='1079'> +2.8528713e+11 </wgt>
<wgt id='1080'> +2.9167843e+11 </wgt>
<wgt id='1081'> +2.8640424e+11 </wgt>
<wgt id='1082'> +2.8050867e+11 </wgt>
<wgt id='1083'> +2.7979197e+11 </wgt>
<wgt id='1084'> +2.8920453e+11 </wgt>
<wgt id='1085'> +2.8106324e+11 </wgt>
<wgt id='1086'> +2.8522409e+11 </wgt>
<wgt id='1087'> +2.8517164e+11 </wgt>
<wgt id='1088'> +2.8542385e+11 </wgt>
<wgt id='1089'> +2.8114580e+11 </wgt>
<wgt id='1090'> +2.8355016e+11 </wgt>
<wgt id='1091'> +2.8306728e+11 </wgt>
<wgt id='1092'> +2.8152497e+11 </wgt>
<wgt id='1093'> +2.7878300e+11 </wgt>
<wgt id='1094'> +2.8074892e+11 </wgt>
<wgt id='1095'> +2.8481859e+11 </wgt>
<wgt id='1096'> +2.8526091e+11 </wgt>
<wgt id='1097'> +2.8305681e+11 </wgt>
<wgt id='1098'> +2.8417647e+11 </wgt>
<wgt id='1099'> +2.8506085e+11 </wgt>
<wgt id='1100'> +2.8306478e+11 </wgt>
<wgt id='1101'> +2.8369987e+11 </wgt>
<wgt id='1102'> +2.8157758e+11 </wgt>
<wgt id='1103'> +2.7761024e+11 </wgt>
<wgt id='1104'> +2.8385177e+11 </wgt>
<wgt id='1105'> +2.8456818e+11 </wgt>
<wgt id='1106'> +2.8395748e+11 </wgt>
<wgt id='1107'> +2.8381973e+11 </wgt>
<wgt id='1108'> +2.8251093e+11 </wgt>
<wgt id='1109'> +2.8543623e+11 </wgt>
<wgt id='1110'> +2.8265607e+11 </wgt>
<wgt id='1111'> +2.8837959e+11 </wgt>
<wgt id='1112'> +2.8078538e+11 </wgt>
<wgt id='1113'> +2.8282160e+11 </wgt>
<wgt id='1114'> +2.8289185e+11 </wgt>
<wgt id='1115'> +2.7944097e+11 </wgt>
<wgt id='1116'> +2.8447448e+11 </wgt>
<wgt id='1117'> +2.8261094e+11 </wgt>
<wgt id='1118'> +2.8692275e+11 </wgt>
<wgt id='1119'> +2.8099512e+11 </wgt>
<wgt id='1120'> +2.7904372e+11 </wgt>
<wgt id='1121'> +2.8194201e+11 </wgt>
<wgt id='1122'> +2.8146433e+11 </wgt>
<wgt id='1123'> +2.8398243e+11 </wgt>
<wgt id='1124'> +2.8540310e+11 </wgt>
<wgt id='1125'> +2.8339779e+11 </wgt>
<wgt id='1126'> +2.8349925e+11 </wgt>
<wgt id='1127'> +2.8364093e+11 </wgt>
<wgt id='1128'> +2.8331705e+11 </wgt>
<wgt id='1129'> +2.8241967e+11 </wgt>
<wgt id='1130'> +2.8345826e+11 </wgt>
<wgt id='1131'> +2.8698390e+11 </wgt>
<wgt id='1132'> +2.8237867e+11 </wgt>
<wgt id='1133'> +2.8368397e+11 </wgt>
<wgt id='1134'> +2.8363466e+11 </wgt>
<wgt id='1135'> +2.8378832e+11 </wgt>
<wgt id='1136'> +2.8202100e+11 </wgt>
<wgt id='1137'> +2.8202182e+11 </wgt>
<wgt id='1138'> +2.8352426e+11 </wgt>
<wgt id='1139'> +2.8418522e+11 </wgt>
<wgt id='1140'> +2.8458268e+11 </wgt>
<wgt id='1141'> +2.8249116e+11 </wgt>
<wgt id='1142'> +2.8356649e+11 </wgt>
<wgt id='1143'> +2.8443115e+11 </wgt>
<wgt id='1144'> +2.8360649e+11 </wgt>
<wgt id='1145'> +2.8416734e+11 </wgt>
<wgt id='1146'> +2.8439268e+11 </wgt>
<wgt id='1147'> +2.8375448e+11 </wgt>
<wgt id='1148'> +2.8343000e+11 </wgt>
<wgt id='1149'> +2.8343000e+11 </wgt>
<wgt id='1150'> +2.8607340e+11 </wgt>
<wgt id='1151'> +2.9719495e+11 </wgt>
<wgt id='1152'> +3.1686264e+11 </wgt>
<wgt id='1153'> +3.0813331e+11 </wgt>
<wgt id='1154'> +2.3496506e+11 </wgt>
<wgt id='1155'> +3.1487494e+11 </wgt>
<wgt id='1156'> +2.9132030e+11 </wgt>
<wgt id='1157'> +3.0990016e+11 </wgt>
<wgt id='1158'> +3.4255229e+11 </wgt>
<wgt id='1159'> +3.0942069e+11 </wgt>
<wgt id='1160'> +2.4651603e+11 </wgt>
<wgt id='1161'> +2.9839458e+11 </wgt>
<wgt id='1162'> +2.5920415e+11 </wgt>
<wgt id='1163'> +2.6721052e+11 </wgt>
<wgt id='1164'> +2.1637720e+11 </wgt>
<wgt id='1165'> +2.9679983e+11 </wgt>
<wgt id='1166'> +2.7457067e+11 </wgt>
<wgt id='1167'> +2.7679666e+11 </wgt>
<wgt id='1168'> +2.2809736e+11 </wgt>
<wgt id='1169'> +2.2535554e+11 </wgt>
<wgt id='1170'> +3.0221231e+11 </wgt>
<wgt id='1171'> +2.4299303e+11 </wgt>
<wgt id='1172'> +2.5177369e+11 </wgt>
<wgt id='1173'> +2.8532299e+11 </wgt>
<wgt id='1174'> +2.9544828e+11 </wgt>
<wgt id='1175'> +3.1092519e+11 </wgt>
<wgt id='1176'> +3.1277588e+11 </wgt>
<wgt id='1177'> +3.3933055e+11 </wgt>
<wgt id='1178'> +2.7079750e+11 </wgt>
<wgt id='1179'> +3.0335891e+11 </wgt>
<wgt id='1180'> +3.2005052e+11 </wgt>
<wgt id='1181'> +2.1842759e+11 </wgt>
<wgt id='1182'> +2.4868996e+11 </wgt>
<wgt id='1183'> +3.0159717e+11 </wgt>
<wgt id='1184'> +2.9606425e+11 </wgt>
<wgt id='1185'> +2.6926898e+11 </wgt>
<wgt id='1186'> +2.6333548e+11 </wgt>
<wgt id='1187'> +3.2224961e+11 </wgt>
<wgt id='1188'> +3.2573875e+11 </wgt>
<wgt id='1189'> +3.3680532e+11 </wgt>
<wgt id='1190'> +3.3587515e+11 </wgt>
<wgt id='1191'> +3.3651471e+11 </wgt>
<wgt id='1192'> +2.8802663e+11 </wgt>
<wgt id='1193'> +3.1473484e+11 </wgt>
<wgt id='1194'> +2.7462162e+11 </wgt>
<wgt id='1195'> +2.6425705e+11 </wgt>
<wgt id='1196'> +2.4620256e+11 </wgt>
<wgt id='1197'> +2.7078153e+11 </wgt>
<wgt id='1198'> +2.7750982e+11 </wgt>
<wgt id='1199'> +3.1224776e+11 </wgt>
<wgt id='1200'> +2.7004032e+11 </wgt>
<wgt id='1201'> +3.2300709e+11 </wgt>
<wgt id='1202'> +2.7932432e+11 </wgt>
<wgt id='1203'> +2.6246861e+11 </wgt>
<wgt id='1204'> +2.1928974e+11 </wgt>
<wgt id='1205'> +3.1599855e+11 </wgt>
<wgt id='1206'> +2.6019869e+11 </wgt>
<wgt id='1207'> +3.0050916e+11 </wgt>
<wgt id='1208'> +3.0931868e+11 </wgt>
<wgt id='1209'> +2.4042800e+11 </wgt>
<wgt id='1210'> +3.1084138e+11 </wgt>
<wgt id='1211'> +3.1465729e+11 </wgt>
<wgt id='1212'> +2.3888541e+11 </wgt>
<wgt id='1213'> +2.7191195e+11 </wgt>
<wgt id='1214'> +2.7538307e+11 </wgt>
<wgt id='1215'> +2.6619824e+11 </wgt>
<wgt id='1216'> +2.7809356e+11 </wgt>
<wgt id='1217'> +2.5642571e+11 </wgt>
<wgt id='1218'> +2.4600419e+11 </wgt>
<wgt id='1219'> +2.6847861e+11 </wgt>
<wgt id='1220'> +2.4884152e+11 </wgt>
<wgt id='1221'> +2.4492057e+11 </wgt>
<wgt id='1222'> +2.5552071e+11 </wgt>
<wgt id='1223'> +3.0367401e+11 </wgt>
<wgt id='1224'> +2.7887123e+11 </wgt>
<wgt id='1225'> +2.2973731e+11 </wgt>
<wgt id='1226'> +2.6114642e+11 </wgt>
<wgt id='1227'> +3.0402814e+11 </wgt>
<wgt id='1228'> +2.2881443e+11 </wgt>
<wgt id='1229'> +2.8091351e+11 </wgt>
<wgt id='1230'> +2.7502119e+11 </wgt>
<wgt id='1231'> +2.9679983e+11 </wgt>
<wgt id='1232'> +2.6655427e+11 </wgt>
<wgt id='1233'> +2.8439590e+11 </wgt>
<wgt id='1234'> +3.1847341e+11 </wgt>
<wgt id='1235'> +3.0616542e+11 </wgt>
<wgt id='1236'> +3.3417683e+11 </wgt>
<wgt id='1237'> +3.0195935e+11 </wgt>
<wgt id='1238'> +3.0512585e+11 </wgt>
<wgt id='1239'> +3.1728124e+11 </wgt>
<wgt id='1240'> +3.3744399e+11 </wgt>
<wgt id='1241'> +2.3172156e+11 </wgt>
<wgt id='1242'> +3.0591276e+11 </wgt>
<wgt id='1243'> +2.4009152e+11 </wgt>
<wgt id='1244'> +2.8990812e+11 </wgt>
<wgt id='1245'> +3.1993673e+11 </wgt>
<wgt id='1246'> +3.1850536e+11 </wgt>
<wgt id='1247'> +2.5103343e+11 </wgt>
<wgt id='1248'> +2.7639469e+11 </wgt>
<wgt id='1249'> +2.8515224e+11 </wgt>
<wgt id='1250'> +2.9023329e+11 </wgt>
<wgt id='1251'> +3.1842958e+11 </wgt>
<wgt id='1252'> +2.7664747e+11 </wgt>
<wgt id='1253'> +3.1617387e+11 </wgt>
<wgt id='1254'> +2.9401524e+11 </wgt>
<wgt id='1255'> +2.9524519e+11 </wgt>
<wgt id='1256'> +3.4403661e+11 </wgt>
<wgt id='1257'> +2.4413378e+11 </wgt>
<wgt id='1258'> +3.2171962e+11 </wgt>
<wgt id='1259'> +3.5525201e+11 </wgt>
<wgt id='1260'> +4.4064388e+11 </wgt>
<wgt id='1261'> +4.6397581e+11 </wgt>
<wgt id='1262'> +3.2330024e+11 </wgt>
<wgt id='1263'> +3.0860557e+11 </wgt>
<wgt id='1264'> +2.9765987e+11 </wgt>
<wgt id='1265'> +2.4354314e+11 </wgt>
<wgt id='1266'> +2.7375290e+11 </wgt>
<wgt id='1267'> +5.1330791e+11 </wgt>
<wgt id='1268'> +1.8164490e+11 </wgt>
<wgt id='1269'> +2.4146076e+11 </wgt>
<wgt id='1270'> +3.6712538e+11 </wgt>
<wgt id='1271'> +1.3161502e+11 </wgt>
<wgt id='1272'> +3.0116375e+11 </wgt>
<wgt id='1273'> +2.9063105e+11 </wgt>
<wgt id='1274'> +3.1430710e+11 </wgt>
<wgt id='1275'> +2.9748085e+11 </wgt>
<wgt id='1276'> +3.2628845e+11 </wgt>
<wgt id='1277'> +4.1760727e+11 </wgt>
<wgt id='1278'> +3.3050978e+11 </wgt>
<wgt id='1279'> +2.5484226e+11 </wgt>
<wgt id='1280'> +3.8236054e+11 </wgt>
<wgt id='1281'> +2.7276053e+11 </wgt>
<wgt id='1282'> +2.8443215e+11 </wgt>
<wgt id='1283'> +3.6246477e+11 </wgt>
<wgt id='1284'> +2.6647070e+11 </wgt>
<wgt id='1285'> +2.4308310e+11 </wgt>
<wgt id='1286'> +4.0043308e+11 </wgt>
<wgt id='1287'> +4.3649218e+11 </wgt>
<wgt id='1288'> +4.9985447e+11 </wgt>
<wgt id='1289'> +3.7769074e+11 </wgt>
<wgt id='1290'> +3.4061492e+11 </wgt>
<wgt id='1291'> +3.0040572e+11 </wgt>
<wgt id='1292'> +3.2585229e+11 </wgt>
<wgt id='1293'> +2.9962013e+11 </wgt>
<wgt id='1294'> +4.9367874e+11 </wgt>
<wgt id='1295'> +3.5291912e+11 </wgt>
<wgt id='1296'> +4.7775927e+11 </wgt>
<wgt id='1297'> +2.5930274e+11 </wgt>
<wgt id='1298'> +2.8473267e+11 </wgt>
<wgt id='1299'> +2.9832900e+11 </wgt>
<wgt id='1300'> +2.1925325e+11 </wgt>
<wgt id='1301'> +1.9874625e+11 </wgt>
<wgt id='1302'> +2.4375191e+11 </wgt>
<wgt id='1303'> +2.8167056e+11 </wgt>
<wgt id='1304'> +4.1162070e+11 </wgt>
<wgt id='1305'> +2.9520162e+11 </wgt>
<wgt id='1306'> +3.0133799e+11 </wgt>
<wgt id='1307'> +2.6253358e+11 </wgt>
<wgt id='1308'> +3.7180986e+11 </wgt>
<wgt id='1309'> +3.2360604e+11 </wgt>
<wgt id='1310'> +2.8935357e+11 </wgt>
<wgt id='1311'> +2.6647699e+11 </wgt>
<wgt id='1312'> +4.0129218e+11 </wgt>
<wgt id='1313'> +3.7263491e+11 </wgt>
<wgt id='1314'> +2.2519119e+11 </wgt>
<wgt id='1315'> +2.4687076e+11 </wgt>
<wgt id='1316'> +2.9348303e+11 </wgt>
<wgt id='1317'> +4.6962177e+11 </wgt>
<wgt id='1318'> +2.7876623e+11 </wgt>
<wgt id='1319'> +2.5865649e+11 </wgt>
<wgt id='1320'> +3.5360359e+11 </wgt>
<wgt id='1321'> +3.4554708e+11 </wgt>
<wgt id='1322'> +3.0105200e+11 </wgt>
<wgt id='1323'> +2.3545470e+11 </wgt>
<wgt id='1324'> +3.4517391e+11 </wgt>
<wgt id='1325'> +3.3910473e+11 </wgt>
<wgt id='1326'> +3.8950448e+11 </wgt>
<wgt id='1327'> +3.6618203e+11 </wgt>
<wgt id='1328'> +3.1215378e+11 </wgt>
<wgt id='1329'> +2.3238493e+11 </wgt>
<wgt id='1330'> +2.4380288e+11 </wgt>
<wgt id='1331'> +3.5376508e+11 </wgt>
<wgt id='1332'> +3.5444199e+11 </wgt>
<wgt id='1333'> +3.1993077e+11 </wgt>
<wgt id='1334'> +3.5498481e+11 </wgt>
<wgt id='1335'> +2.3083205e+11 </wgt>
<wgt id='1336'> +4.6183297e+11 </wgt>
<wgt id='1337'> +3.2015680e+11 </wgt>
<wgt id='1338'> +2.5729227e+11 </wgt>
<wgt id='1339'> +2.6934025e+11 </wgt>
<wgt id='1340'> +3.9207304e+11 </wgt>
<wgt id='1341'> +4.5982560e+11 </wgt>
<wgt id='1342'> +2.6080368e+11 </wgt>
<wgt id='1343'> +3.4974503e+11 </wgt>
<wgt id='1344'> +3.6764503e+11 </wgt>
<wgt id='1345'> +1.4602081e+11 </wgt>
<wgt id='1346'> +2.8463335e+11 </wgt>
<wgt id='1347'> +2.9065352e+11 </wgt>
<wgt id='1348'> +2.3436584e+11 </wgt>
<wgt id='1349'> +2.2996590e+11 </wgt>
<wgt id='1350'> +4.0847143e+11 </wgt>
<wgt id='1351'> +2.8774081e+11 </wgt>
<wgt id='1352'> +3.2707234e+11 </wgt>
<wgt id='1353'> +3.4172365e+11 </wgt>
<wgt id='1354'> +3.1574542e+11 </wgt>
<wgt id='1355'> +2.6370770e+11 </wgt>
<wgt id='1356'> +2.8351927e+11 </wgt>
<wgt id='1357'> +2.5949906e+11 </wgt>
<wgt id='1358'> +2.4362760e+11 </wgt>
<wgt id='1359'> +2.7220985e+11 </wgt>
<wgt id='1360'> +2.4772468e+11 </wgt>
<wgt id='1361'> +2.6571046e+11 </wgt>
<wgt id='1362'> +2.6954062e+11 </wgt>
<wgt id='1363'> +2.4421582e+11 </wgt>
<wgt id='1364'> +2.9035134e+11 </wgt>
<wgt id='1365'> +2.5343184e+11 </wgt>
<wgt id='1366'> +2.7728845e+11 </wgt>
<wgt id='1367'> +2.5997505e+11 </wgt>
<wgt id='1368'> +2.9421131e+11 </wgt>
<wgt id='1369'> +2.6562635e+11 </wgt>
<wgt id='1370'> +2.4434985e+11 </wgt>
<wgt id='1371'> +2.4295298e+11 </wgt>
<wgt id='1372'> +2.5023491e+11 </wgt>
<wgt id='1373'> +2.9696405e+11 </wgt>
<wgt id='1374'> +2.4172037e+11 </wgt>
<wgt id='1375'> +2.6947926e+11 </wgt>
<wgt id='1376'> +2.5816411e+11 </wgt>
<wgt id='1377'> +2.6838254e+11 </wgt>
<wgt id='1378'> +2.6110304e+11 </wgt>
<wgt id='1379'> +2.4915808e+11 </wgt>
<wgt id='1380'> +2.4633232e+11 </wgt>
<wgt id='1381'> +2.7702344e+11 </wgt>
<wgt id='1382'> +2.3753683e+11 </wgt>
<wgt id='1383'> +2.5463729e+11 </wgt>
<wgt id='1384'> +2.3614864e+11 </wgt>
<wgt id='1385'> +2.6059922e+11 </wgt>
<wgt id='1386'> +2.6531705e+11 </wgt>
<wgt id='1387'> +2.8566755e+11 </wgt>
<wgt id='1388'> +2.7201811e+11 </wgt>
<wgt id='1389'> +2.4668340e+11 </wgt>
<wgt id='1390'> +2.6479624e+11 </wgt>
<wgt id='1391'> +2.9384490e+11 </wgt>
<wgt id='1392'> +2.4327031e+11 </wgt>
<wgt id='1393'> +2.7752913e+11 </wgt>
<wgt id='1394'> +2.8142034e+11 </wgt>
<wgt id='1395'> +2.2583193e+11 </wgt>
<wgt id='1396'> +2.5151917e+11 </wgt>
<wgt id='1397'> +2.6129691e+11 </wgt>
<wgt id='1398'> +3.0315357e+11 </wgt>
<wgt id='1399'> +2.3844739e+11 </wgt>
<wgt id='1400'> +2.6728106e+11 </wgt>
<wgt id='1401'> +2.3686983e+11 </wgt>
<wgt id='1402'> +2.7071857e+11 </wgt>
<wgt id='1403'> +2.6800399e+11 </wgt>
<wgt id='1404'> +2.5436314e+11 </wgt>
<wgt id='1405'> +3.0990725e+11 </wgt>
<wgt id='1406'> +2.7869182e+11 </wgt>
<wgt id='1407'> +2.9804075e+11 </wgt>
<wgt id='1408'> +2.9296633e+11 </wgt>
<wgt id='1409'> +2.7003896e+11 </wgt>
<wgt id='1410'> +2.7815087e+11 </wgt>
<wgt id='1411'> +2.6356951e+11 </wgt>
<wgt id='1412'> +3.0174317e+11 </wgt>
<wgt id='1413'> +2.7270728e+11 </wgt>
<wgt id='1414'> +2.7945364e+11 </wgt>
<wgt id='1415'> +2.5522629e+11 </wgt>
<wgt id='1416'> +2.6744087e+11 </wgt>
<wgt id='1417'> +2.3295285e+11 </wgt>
<wgt id='1418'> +2.5427422e+11 </wgt>
<wgt id='1419'> +2.6857330e+11 </wgt>
<wgt id='1420'> +2.4561357e+11 </wgt>
<wgt id='1421'> +2.8501395e+11 </wgt>
<wgt id='1422'> +2.3572797e+11 </wgt>
<wgt id='1423'> +2.6077814e+11 </wgt>
<wgt id='1424'> +2.4793885e+11 </wgt>
<wgt id='1425'> +2.6120681e+11 </wgt>
<wgt id='1426'> +2.7588035e+11 </wgt>
<wgt id='1427'> +2.4889261e+11 </wgt>
<wgt id='1428'> +2.4639442e+11 </wgt>
<wgt id='1429'> +2.5349713e+11 </wgt>
<wgt id='1430'> +2.4342597e+11 </wgt>
<wgt id='1431'> +2.5115220e+11 </wgt>
<wgt id='1432'> +2.5412787e+11 </wgt>
<wgt id='1433'> +2.6287443e+11 </wgt>
<wgt id='1434'> +2.4121106e+11 </wgt>
<wgt id='1435'> +2.8520350e+11 </wgt>
<wgt id='1436'> +2.5428522e+11 </wgt>
<wgt id='1437'> +2.7707583e+11 </wgt>
<wgt id='1438'> +2.5710182e+11 </wgt>
<wgt id='1439'> +2.5442059e+11 </wgt>
<wgt id='1440'> +2.7696787e+11 </wgt>
<wgt id='1441'> +2.6032231e+11 </wgt>
<wgt id='1442'> +2.6826444e+11 </wgt>
<wgt id='1443'> +2.3993923e+11 </wgt>
<wgt id='1444'> +2.6853215e+11 </wgt>
<wgt id='1445'> +2.5347120e+11 </wgt>
<wgt id='1446'> +2.9359924e+11 </wgt>
<wgt id='1447'> +2.9365113e+11 </wgt>
<wgt id='1448'> +2.6948621e+11 </wgt>
<wgt id='1449'> +2.5884407e+11 </wgt>
<wgt id='1450'> +2.4934327e+11 </wgt>
<wgt id='1451'> +2.4501803e+11 </wgt>
<wgt id='1452'> +2.8369331e+11 </wgt>
<wgt id='1453'> +2.8421986e+11 </wgt>
<wgt id='1454'> +2.5453049e+11 </wgt>
<wgt id='1455'> +2.7495179e+11 </wgt>
<wgt id='1456'> +2.5582159e+11 </wgt>
<wgt id='1457'> +2.7344122e+11 </wgt>
<wgt id='1458'> +2.7316222e+11 </wgt>
<wgt id='1459'> +2.9318685e+11 </wgt>
<wgt id='1460'> +2.8738601e+11 </wgt>
<wgt id='1461'> +3.6812879e+11 </wgt>
<wgt id='1462'> +3.6851896e+11 </wgt>
<wgt id='1463'> +3.6877731e+11 </wgt>
<wgt id='1464'> +3.6818758e+11 </wgt>
<wgt id='1465'> +3.6862673e+11 </wgt>
<wgt id='1466'> +3.6842055e+11 </wgt>
<wgt id='1467'> +3.6858346e+11 </wgt>
<wgt id='1468'> +3.6841318e+11 </wgt>
<wgt id='1469'> +3.6791180e+11 </wgt>
<wgt id='1470'> +3.6901198e+11 </wgt>
<wgt id='1471'> +3.6906784e+11 </wgt>
<wgt id='1472'> +3.6795360e+11 </wgt>
<wgt id='1473'> +3.7018786e+11 </wgt>
<wgt id='1474'> +3.6691528e+11 </wgt>
<wgt id='1475'> +3.6986121e+11 </wgt>
<wgt id='1476'> +3.6756868e+11 </wgt>
<wgt id='1477'> +3.6772557e+11 </wgt>
<wgt id='1478'> +3.7037291e+11 </wgt>
<wgt id='1479'> +3.6769020e+11 </wgt>
<wgt id='1480'> +3.6910055e+11 </wgt>
<wgt id='1481'> +3.6697866e+11 </wgt>
<wgt id='1482'> +3.7062077e+11 </wgt>
<wgt id='1483'> +3.6854917e+11 </wgt>
<wgt id='1484'> +3.6848094e+11 </wgt>
<wgt id='1485'> +3.6850352e+11 </wgt>
<wgt id='1486'> +3.6855185e+11 </wgt>
<wgt id='1487'> +3.6829529e+11 </wgt>
<wgt id='1488'> +3.6872982e+11 </wgt>
<wgt id='1489'> +3.6802638e+11 </wgt>
<wgt id='1490'> +3.6985551e+11 </wgt>
<wgt id='1491'> +3.7654745e+11 </wgt>
<wgt id='1492'> +3.6403119e+11 </wgt>
<wgt id='1493'> +3.6355070e+11 </wgt>
<wgt id='1494'> +3.8402949e+11 </wgt>
<wgt id='1495'> +3.6650151e+11 </wgt>
<wgt id='1496'> +3.7069586e+11 </wgt>
<wgt id='1497'> +3.6909823e+11 </wgt>
<wgt id='1498'> +3.6773479e+11 </wgt>
<wgt id='1499'> +3.7305783e+11 </wgt>
<wgt id='1500'> +3.6605915e+11 </wgt>
<wgt id='1501'> +3.6712579e+11 </wgt>
<wgt id='1502'> +3.7237820e+11 </wgt>
<wgt id='1503'> +3.5121744e+11 </wgt>
<wgt id='1504'> +3.8960571e+11 </wgt>
<wgt id='1505'> +3.6702828e+11 </wgt>
<wgt id='1506'> +3.7013556e+11 </wgt>
<wgt id='1507'> +3.8548636e+11 </wgt>
<wgt id='1508'> +3.3436546e+11 </wgt>
<wgt id='1509'> +3.7074514e+11 </wgt>
<wgt id='1510'> +3.5880151e+11 </wgt>
<wgt id='1511'> +3.6710424e+11 </wgt>
<wgt id='1512'> +3.7298112e+11 </wgt>
<wgt id='1513'> +3.6725729e+11 </wgt>
<wgt id='1514'> +3.6985320e+11 </wgt>
<wgt id='1515'> +3.9162636e+11 </wgt>
<wgt id='1516'> +3.5489437e+11 </wgt>
<wgt id='1517'> +3.6543694e+11 </wgt>
<wgt id='1518'> +3.7477356e+11 </wgt>
<wgt id='1519'> +3.6435601e+11 </wgt>
<wgt id='1520'> +3.7145839e+11 </wgt>
<wgt id='1521'> +3.6483371e+11 </wgt>
<wgt id='1522'> +3.7049639e+11 </wgt>
<wgt id='1523'> +3.7571293e+11 </wgt>
<wgt id='1524'> +3.6779423e+11 </wgt>
<wgt id='1525'> +3.6983943e+11 </wgt>
<wgt id='1526'> +3.7116349e+11 </wgt>
<wgt id='1527'> +3.6851896e+11 </wgt>
<wgt id='1528'> +3.5525585e+11 </wgt>
<wgt id='1529'> +3.8224007e+11 </wgt>
<wgt id='1530'> +3.1689043e+11 </wgt>
<wgt id='1531'> +3.9433225e+11 </wgt>
<wgt id='1532'> +4.1100345e+11 </wgt>
<wgt id='1533'> +3.8972159e+11 </wgt>
<wgt id='1534'> +3.8663606e+11 </wgt>
<wgt id='1535'> +3.9927023e+11 </wgt>
<wgt id='1536'> +3.7502215e+11 </wgt>
<wgt id='1537'> +4.1117920e+11 </wgt>
<wgt id='1538'> +3.8462702e+11 </wgt>
<wgt id='1539'> +4.1099646e+11 </wgt>
<wgt id='1540'> +4.0938477e+11 </wgt>
<wgt id='1541'> +3.9921506e+11 </wgt>
<wgt id='1542'> +4.0000049e+11 </wgt>
<wgt id='1543'> +4.0691621e+11 </wgt>
<wgt id='1544'> +3.8631827e+11 </wgt>
<wgt id='1545'> +3.9063417e+11 </wgt>
<wgt id='1546'> +3.9177811e+11 </wgt>
<wgt id='1547'> +3.9648879e+11 </wgt>
<wgt id='1548'> +3.9535254e+11 </wgt>
<wgt id='1549'> +3.9081422e+11 </wgt>
<wgt id='1550'> +3.9784828e+11 </wgt>
<wgt id='1551'> +3.9998781e+11 </wgt>
<wgt id='1552'> +3.9455958e+11 </wgt>
<wgt id='1553'> +4.0789844e+11 </wgt>
<wgt id='1554'> +3.9816816e+11 </wgt>
<wgt id='1555'> +3.9141048e+11 </wgt>
<wgt id='1556'> +4.0140211e+11 </wgt>
<wgt id='1557'> +3.9525362e+11 </wgt>
<wgt id='1558'> +3.9282279e+11 </wgt>
<wgt id='1559'> +3.9561842e+11 </wgt>
<wgt id='1560'> +3.9963093e+11 </wgt>
<wgt id='1561'> +3.9124680e+11 </wgt>
<wgt id='1562'> +3.8135233e+11 </wgt>
<wgt id='1563'> +3.9460461e+11 </wgt>
<wgt id='1564'> +3.9306486e+11 </wgt>
<wgt id='1565'> +4.0866817e+11 </wgt>
<wgt id='1566'> +3.9421644e+11 </wgt>
<wgt id='1567'> +3.8275018e+11 </wgt>
<wgt id='1568'> +3.9357821e+11 </wgt>
<wgt id='1569'> +3.9413098e+11 </wgt>
<wgt id='1570'> +4.0509000e+11 </wgt>
<wgt id='1571'> +3.9011044e+11 </wgt>
<wgt id='1572'> +3.8583849e+11 </wgt>
<wgt id='1573'> +4.1698814e+11 </wgt>
<wgt id='1574'> +2.0962483e+11 </wgt>
<wgt id='1575'> +2.0967178e+11 </wgt>
<wgt id='1576'> +2.0955389e+11 </wgt>
<wgt id='1577'> +2.0964017e+11 </wgt>
<wgt id='1578'> +2.1010242e+11 </wgt>
<wgt id='1579'> +2.1018974e+11 </wgt>
<wgt id='1580'> +2.0995099e+11 </wgt>
<wgt id='1581'> +2.0966189e+11 </wgt>
<wgt id='1582'> +2.0948205e+11 </wgt>
<wgt id='1583'> +2.0903996e+11 </wgt>
<wgt id='1584'> +2.1017399e+11 </wgt>
<wgt id='1585'> +2.1028076e+11 </wgt>
<wgt id='1586'> +2.0947654e+11 </wgt>
<wgt id='1587'> +2.0940189e+11 </wgt>
<wgt id='1588'> +2.0910248e+11 </wgt>
<wgt id='1589'> +2.0907857e+11 </wgt>
<wgt id='1590'> +2.0932447e+11 </wgt>
<wgt id='1591'> +2.0965715e+11 </wgt>
<wgt id='1592'> +2.0902023e+11 </wgt>
<wgt id='1593'> +2.0840894e+11 </wgt>
<wgt id='1594'> +2.1111501e+11 </wgt>
<wgt id='1595'> +2.0687399e+11 </wgt>
<wgt id='1596'> +2.1454802e+11 </wgt>
<wgt id='1597'> +2.1111034e+11 </wgt>
<wgt id='1598'> +2.1091961e+11 </wgt>
<wgt id='1599'> +2.0658768e+11 </wgt>
<wgt id='1600'> +2.1471059e+11 </wgt>
<wgt id='1601'> +2.1160553e+11 </wgt>
<wgt id='1602'> +2.1057119e+11 </wgt>
<wgt id='1603'> +2.2909193e+11 </wgt>
<wgt id='1604'> +2.0919555e+11 </wgt>
</rwgt>
</event>
<event>
 9      1 +2.8343000e+11 1.40000000e+03 7.81738600e-03 7.88881200e-02
       21 -1    0    0  504  503 +0.0000000000e+00 +0.0000000000e+00 +1.9473414429e+02 1.9473414429e+02 0.0000000000e+00 0.0000e+00 1.0000e+00
       21 -1    0    0  503  504 -0.0000000000e+00 -0.0000000000e+00 -2.5162504016e+03 2.5162504016e+03 0.0000000000e+00 0.0000e+00 1.0000e+00
       45  2    1    2    0    0 -5.6843418861e-14 -5.6843418861e-14 -2.3215162574e+03 2.7109845459e+03 1.3999998126e+03 0.0000e+00 0.0000e+00
       25  2    3    3    0    0 +3.2120302715e+02 +1.7216613618e+02 -2.3031494658e+03 2.3351521100e+03 1.2500140915e+02 0.0000e+00 0.0000e+00
       35  2    3    3    0    0 -3.2120302715e+02 -1.7216613618e+02 -1.8366791585e+01 3.7583243589e+02 9.0000654106e+01 0.0000e+00 0.0000e+00
        5  1    5    5  501    0 -2.9479030317e+02 -1.8166430741e+02 -1.0829009647e+01 3.4646539318e+02 4.2140000000e+00 0.0000e+00 1.0000e+00
       -5  1    5    5    0  501 -2.6412723980e+01 +9.4981712323e+00 -7.5377819377e+00 2.9367042707e+01 4.2140000000e+00 0.0000e+00 1.0000e+00
        5  1    4    4  502    0 +1.5727982997e+01 -8.3213993867e+00 -3.1900731695e+02 3.1953097064e+02 4.2140000000e+00 0.0000e+00 1.0000e+00
       -5  1    4    4    0  502 +3.0547504415e+02 +1.8048753556e+02 -1.9841421488e+03 2.0156211394e+03 4.2140000000e+00 0.0000e+00 1.0000e+00
<mgrwt>
<rscale>  0 0.13999998E+04</rscale>
<asrwt>0</asrwt>
<pdfrwt beam="1">  1       21 0.29959098E-01 0.13999998E+04</pdfrwt>
<pdfrwt beam="2">  1       21 0.38711545E+00 0.13999998E+04</pdfrwt>
<totfact> 0.61265895E+01</totfact>
</mgrwt>
<rwgt>
<wgt id='1001'> +2.8343000e+11 </wgt>
<wgt id='1002'> +3.2171056e+11 </wgt>
<wgt id='1003'> +3.2166255e+11 </wgt>
<wgt id='1004'> +3.7350552e+11 </wgt>
<wgt id='1005'> +2.8343000e+11 </wgt>
<wgt id='1006'> +2.8343000e+11 </wgt>
<wgt id='1007'> +3.2171056e+11 </wgt>
<wgt id='1008'> +3.2166255e+11 </wgt>
<wgt id='1009'> +3.7350552e+11 </wgt>
<wgt id='1010'> +2.8343000e+11 </wgt>
<wgt id='1011'> +2.8343000e+11 </wgt>
<wgt id='1012'> +3.2171056e+11 </wgt>
<wgt id='1013'> +3.2166255e+11 </wgt>
<wgt id='1014'> +3.7350552e+11 </wgt>
<wgt id='1015'> +2.8343000e+11 </wgt>
<wgt id='1016'> +2.4853335e+11 </wgt>
<wgt id='1017'> +2.7983368e+11 </wgt>
<wgt id='1018'> +2.7979460e+11 </wgt>
<wgt id='1019'> +3.2166255e+11 </wgt>
<wgt id='1020'> +2.4853335e+11 </wgt>
<wgt id='1021'> +2.4853335e+11 </wgt>
<wgt id='1022'> +2.7983368e+11 </wgt>
<wgt id='1023'> +2.7979460e+11 </wgt>
<wgt id='1024'> +3.2166255e+11 </wgt>
<wgt id='1025'> +2.4853335e+11 </wgt>
<wgt id='1026'> +2.4853335e+11 </wgt>
<wgt id='1027'> +2.7983368e+11 </wgt>
<wgt id='1028'> +2.7979460e+11 </wgt>
<wgt id='1029'> +3.2166255e+11 </wgt>
<wgt id='1030'> +2.4853335e+11 </wgt>
<wgt id='1031'> +3.2613003e+11 </wgt>
<wgt id='1032'> +3.7356530e+11 </wgt>
<wgt id='1033'> +3.7350552e+11 </wgt>
<wgt id='1034'> +4.3853180e+11 </wgt>
<wgt id='1035'> +3.2613003e+11 </wgt>
<wgt id='1036'> +3.2613003e+11 </wgt>
<wgt id='1037'> +3.7356530e+11 </wgt>
<wgt id='1038'> +3.7350552e+11 </wgt>
<wgt id='1039'> +4.3853180e+11 </wgt>
<wgt id='1040'> +3.2613003e+11 </wgt>
<wgt id='1041'> +3.2613003e+11 </wgt>
<wgt id='1042'> +3.7356530e+11 </wgt>
<wgt id='1043'> +3.7350552e+11 </wgt>
<wgt id='1044'> +4.3853180e+11 </wgt>
<wgt id='1045'> +3.2613003e+11 </wgt>
<wgt id='1046'> +2.8343000e+11 </wgt>
<wgt id='1047'> +2.8343000e+11 </wgt>
<wgt id='1048'> +2.8343000e+11 </wgt>
<wgt id='1049'> +2.8260364e+11 </wgt>
<wgt id='1050'> +2.8054570e+11 </wgt>
<wgt id='1051'> +2.8329881e+11 </wgt>
<wgt id='1052'> +2.8301299e+11 </wgt>
<wgt id='1053'> +2.8167531e+11 </wgt>
<wgt id='1054'> +2.8762747e+11 </wgt>
<wgt id='1055'> +2.8164273e+11 </wgt>
<wgt id='1056'> +2.8038069e+11 </wgt>
<wgt id='1057'> +2.8346214e+11 </wgt>
<wgt id='1058'> +2.8462427e+11 </wgt>
<wgt id='1059'> +2.8498081e+11 </wgt>
<wgt id='1060'> +2.8205366e+11 </wgt>
<wgt id='1061'> +2.8490274e+11 </wgt>
<wgt id='1062'> +2.8664793e+11 </wgt>
<wgt id='1063'> +2.8436854e+11 </wgt>
<wgt id='1064'> +2.8769786e+11 </wgt>
<wgt id='1065'> +2.8540500e+11 </wgt>
<wgt id='1066'> +2.8325315e+11 </wgt>
<wgt id='1067'> +2.8458638e+11 </wgt>
<wgt id='1068'> +2.8511683e+11 </wgt>
<wgt id='1069'> +2.8058444e+11 </wgt>
<wgt id='1070'> +2.7866787e+11 </wgt>
<wgt id='1071'> +2.8723486e+11 </wgt>
<wgt id='1072'> +2.7489195e+11 </wgt>
<wgt id='1073'> +2.8635159e+11 </wgt>
<wgt id='1074'> +2.8542470e+11 </wgt>
<wgt id='1075'> +2.8054576e+11 </wgt>
<wgt id='1076'> +2.8569683e+11 </wgt>
<wgt id='1077'> +2.8096917e+11 </wgt>
<wgt id='1078'> +2.7437713e+11 </wgt>
<wgt id='1079'> +2.8549259e+11 </wgt>
<wgt id='1080'> +2.8759018e+11 </wgt>
<wgt id='1081'> +2.8481801e+11 </wgt>
<wgt id='1082'> +2.8120703e+11 </wgt>
<wgt id='1083'> +2.8227083e+11 </wgt>
<wgt id='1084'> +2.8621430e+11 </wgt>
<wgt id='1085'> +2.8174928e+11 </wgt>
<wgt id='1086'> +2.8578474e+11 </wgt>
<wgt id='1087'> +2.8509092e+11 </wgt>
<wgt id='1088'> +2.8395683e+11 </wgt>
<wgt id='1089'> +2.8216273e+11 </wgt>
<wgt id='1090'> +2.8441957e+11 </wgt>
<wgt id='1091'> +2.8346342e+11 </wgt>
<wgt id='1092'> +2.8284919e+11 </wgt>
<wgt id='1093'> +2.8171966e+11 </wgt>
<wgt id='1094'> +2.8043654e+11 </wgt>
<wgt id='1095'> +2.8368938e+11 </wgt>
<wgt id='1096'> +2.8455350e+11 </wgt>
<wgt id='1097'> +2.8297911e+11 </wgt>
<wgt id='1098'> +2.8417200e+11 </wgt>
<wgt id='1099'> +2.8439586e+11 </wgt>
<wgt id='1100'> +2.8339366e+11 </wgt>
<wgt id='1101'> +2.8368845e+11 </wgt>
<wgt id='1102'> +2.8278721e+11 </wgt>
<wgt id='1103'> +2.7985181e+11 </wgt>
<wgt id='1104'> +2.8390182e+11 </wgt>
<wgt id='1105'> +2.8404665e+11 </wgt>
<wgt id='1106'> +2.8400370e+11 </wgt>
<wgt id='1107'> +2.8415837e+11 </wgt>
<wgt id='1108'> +2.8294419e+11 </wgt>
<wgt id='1109'> +2.8443954e+11 </wgt>
<wgt id='1110'> +2.8307507e+11 </wgt>
<wgt id='1111'> +2.8628150e+11 </wgt>
<wgt id='1112'> +2.8226417e+11 </wgt>
<wgt id='1113'> +2.8348848e+11 </wgt>
<wgt id='1114'> +2.8300603e+11 </wgt>
<wgt id='1115'> +2.8075133e+11 </wgt>
<wgt id='1116'> +2.8498395e+11 </wgt>
<wgt id='1117'> +2.8280182e+11 </wgt>
<wgt id='1118'> +2.8557208e+11 </wgt>
<wgt id='1119'> +2.8178646e+11 </wgt>
<wgt id='1120'> +2.8086598e+11 </wgt>
<wgt id='1121'> +2.8280547e+11 </wgt>
<wgt id='1122'> +2.8197306e+11 </wgt>
<wgt id='1123'> +2.8352445e+11 </wgt>
<wgt id='1124'> +2.8457781e+11 </wgt>
<wgt id='1125'> +2.8352929e+11 </wgt>
<wgt id='1126'> +2.8360871e+11 </wgt>
<wgt id='1127'> +2.8361850e+11 </wgt>
<wgt id='1128'> +2.8318252e+11 </wgt>
<wgt id='1129'> +2.8256794e+11 </wgt>
<wgt id='1130'> +2.8346769e+11 </wgt>
<wgt id='1131'> +2.8564440e+11 </wgt>
<wgt id='1132'> +2.8280291e+11 </wgt>
<wgt id='1133'> +2.8381416e+11 </wgt>
<wgt id='1134'> +2.8340980e+11 </wgt>
<wgt id='1135'> +2.8368512e+11 </wgt>
<wgt id='1136'> +2.8263387e+11 </wgt>
<wgt id='1137'> +2.8254895e+11 </wgt>
<wgt id='1138'> +2.8358484e+11 </wgt>
<wgt id='1139'> +2.8403367e+11 </wgt>
<wgt id='1140'> +2.8419088e+11 </wgt>
<wgt id='1141'> +2.8267316e+11 </wgt>
<wgt id='1142'> +2.8351874e+11 </wgt>
<wgt id='1143'> +2.8418789e+11 </wgt>
<wgt id='1144'> +2.8346965e+11 </wgt>
<wgt id='1145'> +2.8390892e+11 </wgt>
<wgt id='1146'> +2.8401440e+11 </wgt>
<wgt id='1147'> +2.8361223e+11 </wgt>
<wgt id='1148'> +2.8343000e+11 </wgt>
<wgt id='1149'> +2.8343000e+11 </wgt>
<wgt id='1150'> +2.8001186e+11 </wgt>
<wgt id='1151'> +2.8761195e+11 </wgt>
<wgt id='1152'> +3.0182234e+11 </wgt>
<wgt id='1153'> +2.9385457e+11 </wgt>
<wgt id='1154'> +2.5333298e+11 </wgt>
<wgt id='1155'> +3.0742443e+11 </wgt>
<wgt id='1156'> +2.8906574e+11 </wgt>
<wgt id='1157'> +2.8990034e+11 </wgt>
<wgt id='1158'> +3.1283407e+11 </wgt>
<wgt id='1159'> +2.9853090e+11 </wgt>
<wgt id='1160'> +2.4559464e+11 </wgt>
<wgt id='1161'> +2.9865601e+11 </wgt>
<wgt id='1162'> +2.6686671e+11 </wgt>
<wgt id='1163'> +2.7922599e+11 </wgt>
<wgt id='1164'> +2.3979597e+11 </wgt>
<wgt id='1165'> +2.8797683e+11 </wgt>
<wgt id='1166'> +2.7625526e+11 </wgt>
<wgt id='1167'> +2.7727915e+11 </wgt>
<wgt id='1168'> +2.4711265e+11 </wgt>
<wgt id='1169'> +2.4701283e+11 </wgt>
<wgt id='1170'> +2.8827317e+11 </wgt>
<wgt id='1171'> +2.6015842e+11 </wgt>
<wgt id='1172'> +2.5505424e+11 </wgt>
<wgt id='1173'> +2.8733021e+11 </wgt>
<wgt id='1174'> +2.9170523e+11 </wgt>
<wgt id='1175'> +2.9389906e+11 </wgt>
<wgt id='1176'> +2.9896680e+11 </wgt>
<wgt id='1177'> +3.1666028e+11 </wgt>
<wgt id='1178'> +2.7410377e+11 </wgt>
<wgt id='1179'> +3.0206854e+11 </wgt>
<wgt id='1180'> +3.0894402e+11 </wgt>
<wgt id='1181'> +2.4186066e+11 </wgt>
<wgt id='1182'> +2.6142803e+11 </wgt>
<wgt id='1183'> +2.9995876e+11 </wgt>
<wgt id='1184'> +2.8404242e+11 </wgt>
<wgt id='1185'> +2.8166055e+11 </wgt>
<wgt id='1186'> +2.6567300e+11 </wgt>
<wgt id='1187'> +3.1865725e+11 </wgt>
<wgt id='1188'> +3.0833618e+11 </wgt>
<wgt id='1189'> +3.1813071e+11 </wgt>
<wgt id='1190'> +3.0888134e+11 </wgt>
<wgt id='1191'> +3.2650839e+11 </wgt>
<wgt id='1192'> +2.8937306e+11 </wgt>
<wgt id='1193'> +2.9839720e+11 </wgt>
<wgt id='1194'> +2.6825251e+11 </wgt>
<wgt id='1195'> +2.8286811e+11 </wgt>
<wgt id='1196'> +2.5740814e+11 </wgt>
<wgt id='1197'> +2.8528035e+11 </wgt>
<wgt id='1198'> +2.6847733e+11 </wgt>
<wgt id='1199'> +3.1069514e+11 </wgt>
<wgt id='1200'> +2.6286098e+11 </wgt>
<wgt id='1201'> +3.1426702e+11 </wgt>
<wgt id='1202'> +2.7481474e+11 </wgt>
<wgt id='1203'> +2.7946467e+11 </wgt>
<wgt id='1204'> +2.4824056e+11 </wgt>
<wgt id='1205'> +3.0602888e+11 </wgt>
<wgt id='1206'> +2.6456079e+11 </wgt>
<wgt id='1207'> +3.0887036e+11 </wgt>
<wgt id='1208'> +3.0090238e+11 </wgt>
<wgt id='1209'> +2.5827919e+11 </wgt>
<wgt id='1210'> +2.9896348e+11 </wgt>
<wgt id='1211'> +3.0285943e+11 </wgt>
<wgt id='1212'> +2.5075492e+11 </wgt>
<wgt id='1213'> +2.7305219e+11 </wgt>
<wgt id='1214'> +2.7521327e+11 </wgt>
<wgt id='1215'> +2.9247340e+11 </wgt>
<wgt id='1216'> +2.7777559e+11 </wgt>
<wgt id='1217'> +2.7412616e+11 </wgt>
<wgt id='1218'> +2.5973450e+11 </wgt>
<wgt id='1219'> +2.7638818e+11 </wgt>
<wgt id='1220'> +2.5987757e+11 </wgt>
<wgt id='1221'> +2.5062476e+11 </wgt>
<wgt id='1222'> +2.6660864e+11 </wgt>
<wgt id='1223'> +2.8504386e+11 </wgt>
<wgt id='1224'> +2.7926688e+11 </wgt>
<wgt id='1225'> +2.5911891e+11 </wgt>
<wgt id='1226'> +2.7509054e+11 </wgt>
<wgt id='1227'> +2.6434231e+11 </wgt>
<wgt id='1228'> +2.4460745e+11 </wgt>
<wgt id='1229'> +2.8767078e+11 </wgt>
<wgt id='1230'> +2.8343656e+11 </wgt>
<wgt id='1231'> +2.8797683e+11 </wgt>
<wgt id='1232'> +2.8176856e+11 </wgt>
<wgt id='1233'> +2.8631163e+11 </wgt>
<wgt id='1234'> +3.0610625e+11 </wgt>
<wgt id='1235'> +3.0864433e+11 </wgt>
<wgt id='1236'> +3.1313563e+11 </wgt>
<wgt id='1237'> +2.9794419e+11 </wgt>
<wgt id='1238'> +3.1897913e+11 </wgt>
<wgt id='1239'> +3.0634756e+11 </wgt>
<wgt id='1240'> +3.1555218e+11 </wgt>
<wgt id='1241'> +2.5725364e+11 </wgt>
<wgt id='1242'> +2.9182738e+11 </wgt>
<wgt id='1243'> +2.5777628e+11 </wgt>
<wgt id='1244'> +2.8898342e+11 </wgt>
<wgt id='1245'> +3.0573942e+11 </wgt>
<wgt id='1246'> +3.0909195e+11 </wgt>
<wgt id='1247'> +2.6546534e+11 </wgt>
<wgt id='1248'> +2.7611724e+11 </wgt>
<wgt id='1249'> +2.8056879e+11 </wgt>
<wgt id='1250'> +2.9734750e+11 </wgt>
<wgt id='1251'> +3.1604231e+11 </wgt>
<wgt id='1252'> +2.7927938e+11 </wgt>
<wgt id='1253'> +3.2604580e+11 </wgt>
<wgt id='1254'> +2.9179255e+11 </wgt>
<wgt id='1255'> +3.1330606e+11 </wgt>
<wgt id='1256'> +3.2692106e+11 </wgt>
<wgt id='1257'> +2.5728227e+11 </wgt>
<wgt id='1258'> +3.0860027e+11 </wgt>
<wgt id='1259'> +3.4634086e+11 </wgt>
<wgt id='1260'> +3.9807593e+11 </wgt>
<wgt id='1261'> +4.0277370e+11 </wgt>
<wgt id='1262'> +3.1513664e+11 </wgt>
<wgt id='1263'> +3.2039186e+11 </wgt>
<wgt id='1264'> +2.9985110e+11 </wgt>
<wgt id='1265'> +2.6538642e+11 </wgt>
<wgt id='1266'> +2.9020706e+11 </wgt>
<wgt id='1267'> +4.6598327e+11 </wgt>
<wgt id='1268'> +2.5196368e+11 </wgt>
<wgt id='1269'> +2.5360031e+11 </wgt>
<wgt id='1270'> +3.4827977e+11 </wgt>
<wgt id='1271'> +1.8823379e+11 </wgt>
<wgt id='1272'> +3.0080358e+11 </wgt>
<wgt id='1273'> +2.9402654e+11 </wgt>
<wgt id='1274'> +3.0520892e+11 </wgt>
<wgt id='1275'> +2.8929113e+11 </wgt>
<wgt id='1276'> +3.2878304e+11 </wgt>
<wgt id='1277'> +3.7126491e+11 </wgt>
<wgt id='1278'> +3.2829292e+11 </wgt>
<wgt id='1279'> +2.5872673e+11 </wgt>
<wgt id='1280'> +3.5758895e+11 </wgt>
<wgt id='1281'> +2.7554141e+11 </wgt>
<wgt id='1282'> +2.8377701e+11 </wgt>
<wgt id='1283'> +3.4973339e+11 </wgt>
<wgt id='1284'> +2.7595446e+11 </wgt>
<wgt id='1285'> +2.5377540e+11 </wgt>
<wgt id='1286'> +4.0329233e+11 </wgt>
<wgt id='1287'> +4.1788453e+11 </wgt>
<wgt id='1288'> +4.5974433e+11 </wgt>
<wgt id='1289'> +3.5682762e+11 </wgt>
<wgt id='1290'> +3.2748564e+11 </wgt>
<wgt id='1291'> +2.9187710e+11 </wgt>
<wgt id='1292'> +3.2053433e+11 </wgt>
<wgt id='1293'> +3.0007913e+11 </wgt>
<wgt id='1294'> +4.4107464e+11 </wgt>
<wgt id='1295'> +3.3258607e+11 </wgt>
<wgt id='1296'> +4.3260670e+11 </wgt>
<wgt id='1297'> +2.6353144e+11 </wgt>
<wgt id='1298'> +2.8948300e+11 </wgt>
<wgt id='1299'> +3.0439326e+11 </wgt>
<wgt id='1300'> +2.2965179e+11 </wgt>
<wgt id='1301'> +2.3195252e+11 </wgt>
<wgt id='1302'> +2.5284603e+11 </wgt>
<wgt id='1303'> +2.9741929e+11 </wgt>
<wgt id='1304'> +3.9376688e+11 </wgt>
<wgt id='1305'> +2.9065529e+11 </wgt>
<wgt id='1306'> +3.0163052e+11 </wgt>
<wgt id='1307'> +2.6616912e+11 </wgt>
<wgt id='1308'> +3.5831570e+11 </wgt>
<wgt id='1309'> +3.2693306e+11 </wgt>
<wgt id='1310'> +3.0178781e+11 </wgt>
<wgt id='1311'> +2.7788831e+11 </wgt>
<wgt id='1312'> +3.8957973e+11 </wgt>
<wgt id='1313'> +3.5339731e+11 </wgt>
<wgt id='1314'> +2.4440672e+11 </wgt>
<wgt id='1315'> +2.5552105e+11 </wgt>
<wgt id='1316'> +2.9666985e+11 </wgt>
<wgt id='1317'> +4.1577868e+11 </wgt>
<wgt id='1318'> +2.8153556e+11 </wgt>
<wgt id='1319'> +2.8895675e+11 </wgt>
<wgt id='1320'> +3.4172354e+11 </wgt>
<wgt id='1321'> +3.3362634e+11 </wgt>
<wgt id='1322'> +3.1479588e+11 </wgt>
<wgt id='1323'> +2.4173607e+11 </wgt>
<wgt id='1324'> +3.3946016e+11 </wgt>
<wgt id='1325'> +3.2846719e+11 </wgt>
<wgt id='1326'> +3.5942119e+11 </wgt>
<wgt id='1327'> +3.5079776e+11 </wgt>
<wgt id='1328'> +3.3648551e+11 </wgt>
<wgt id='1329'> +2.6060319e+11 </wgt>
<wgt id='1330'> +2.5680965e+11 </wgt>
<wgt id='1331'> +3.4291734e+11 </wgt>
<wgt id='1332'> +3.4101997e+11 </wgt>
<wgt id='1333'> +3.0948029e+11 </wgt>
<wgt id='1334'> +3.6610877e+11 </wgt>
<wgt id='1335'> +2.4268622e+11 </wgt>
<wgt id='1336'> +4.1320058e+11 </wgt>
<wgt id='1337'> +3.1791053e+11 </wgt>
<wgt id='1338'> +2.6485713e+11 </wgt>
<wgt id='1339'> +2.7134959e+11 </wgt>
<wgt id='1340'> +3.7616078e+11 </wgt>
<wgt id='1341'> +4.4817377e+11 </wgt>
<wgt id='1342'> +2.6534995e+11 </wgt>
<wgt id='1343'> +3.2893474e+11 </wgt>
<wgt id='1344'> +3.5356873e+11 </wgt>
<wgt id='1345'> +1.7858343e+11 </wgt>
<wgt id='1346'> +2.9583536e+11 </wgt>
<wgt id='1347'> +3.0449218e+11 </wgt>
<wgt id='1348'> +2.5112207e+11 </wgt>
<wgt id='1349'> +2.6375543e+11 </wgt>
<wgt id='1350'> +3.9951590e+11 </wgt>
<wgt id='1351'> +2.8691465e+11 </wgt>
<wgt id='1352'> +3.2084547e+11 </wgt>
<wgt id='1353'> +3.3090813e+11 </wgt>
<wgt id='1354'> +3.2094985e+11 </wgt>
<wgt id='1355'> +2.7442740e+11 </wgt>
<wgt id='1356'> +2.8497806e+11 </wgt>
<wgt id='1357'> +2.7685171e+11 </wgt>
<wgt id='1358'> +2.6147082e+11 </wgt>
<wgt id='1359'> +2.7708129e+11 </wgt>
<wgt id='1360'> +2.6190662e+11 </wgt>
<wgt id='1361'> +2.7587247e+11 </wgt>
<wgt id='1362'> +2.7996217e+11 </wgt>
<wgt id='1363'> +2.6095914e+11 </wgt>
<wgt id='1364'> +3.0501247e+11 </wgt>
<wgt id='1365'> +2.6706284e+11 </wgt>
<wgt id='1366'> +2.8203310e+11 </wgt>
<wgt id='1367'> +2.6693315e+11 </wgt>
<wgt id='1368'> +2.9657419e+11 </wgt>
<wgt id='1369'> +2.7623310e+11 </wgt>
<wgt id='1370'> +2.5749539e+11 </wgt>
<wgt id='1371'> +2.5682726e+11 </wgt>
<wgt id='1372'> +2.6142853e+11 </wgt>
<wgt id='1373'> +2.9883942e+11 </wgt>
<wgt id='1374'> +2.6616144e+11 </wgt>
<wgt id='1375'> +2.7814401e+11 </wgt>
<wgt id='1376'> +2.7769397e+11 </wgt>
<wgt id='1377'> +2.7481213e+11 </wgt>
<wgt id='1378'> +2.7721875e+11 </wgt>
<wgt id='1379'> +2.6418128e+11 </wgt>
<wgt id='1380'> +2.6478065e+11 </wgt>
<wgt id='1381'> +2.8287264e+11 </wgt>
<wgt id='1382'> +2.5694583e+11 </wgt>
<wgt id='1383'> +2.6945683e+11 </wgt>
<wgt id='1384'> +2.5311417e+11 </wgt>
<wgt id='1385'> +2.7228012e+11 </wgt>
<wgt id='1386'> +2.7424286e+11 </wgt>
<wgt id='1387'> +2.8795026e+11 </wgt>
<wgt id='1388'> +2.7905451e+11 </wgt>
<wgt id='1389'> +2.6037959e+11 </wgt>
<wgt id='1390'> +2.7551995e+11 </wgt>
<wgt id='1391'> +2.9732585e+11 </wgt>
<wgt id='1392'> +2.5644961e+11 </wgt>
<wgt id='1393'> +2.8416206e+11 </wgt>
<wgt id='1394'> +2.8768688e+11 </wgt>
<wgt id='1395'> +2.4698462e+11 </wgt>
<wgt id='1396'> +2.6868838e+11 </wgt>
<wgt id='1397'> +2.7084827e+11 </wgt>
<wgt id='1398'> +3.0273225e+11 </wgt>
<wgt id='1399'> +2.5731075e+11 </wgt>
<wgt id='1400'> +2.7245750e+11 </wgt>
<wgt id='1401'> +2.5432951e+11 </wgt>
<wgt id='1402'> +2.7882962e+11 </wgt>
<wgt id='1403'> +2.8491563e+11 </wgt>
<wgt id='1404'> +2.7001312e+11 </wgt>
<wgt id='1405'> +3.0782765e+11 </wgt>
<wgt id='1406'> +2.8674826e+11 </wgt>
<wgt id='1407'> +3.0247953e+11 </wgt>
<wgt id='1408'> +2.9947706e+11 </wgt>
<wgt id='1409'> +2.7227473e+11 </wgt>
<wgt id='1410'> +2.8230449e+11 </wgt>
<wgt id='1411'> +2.7314730e+11 </wgt>
<wgt id='1412'> +3.0302185e+11 </wgt>
<wgt id='1413'> +2.8336727e+11 </wgt>
<wgt id='1414'> +2.8480569e+11 </wgt>
<wgt id='1415'> +2.6507559e+11 </wgt>
<wgt id='1416'> +2.7571432e+11 </wgt>
<wgt id='1417'> +2.5181839e+11 </wgt>
<wgt id='1418'> +2.6784677e+11 </wgt>
<wgt id='1419'> +2.7658581e+11 </wgt>
<wgt id='1420'> +2.5230521e+11 </wgt>
<wgt id='1421'> +2.9321669e+11 </wgt>
<wgt id='1422'> +2.5095499e+11 </wgt>
<wgt id='1423'> +2.7218688e+11 </wgt>
<wgt id='1424'> +2.6210390e+11 </wgt>
<wgt id='1425'> +2.7074504e+11 </wgt>
<wgt id='1426'> +2.8644969e+11 </wgt>
<wgt id='1427'> +2.6311034e+11 </wgt>
<wgt id='1428'> +2.5992200e+11 </wgt>
<wgt id='1429'> +2.6812630e+11 </wgt>
<wgt id='1430'> +2.6060463e+11 </wgt>
<wgt id='1431'> +2.7390573e+11 </wgt>
<wgt id='1432'> +2.6262625e+11 </wgt>
<wgt id='1433'> +2.6750766e+11 </wgt>
<wgt id='1434'> +2.5772138e+11 </wgt>
<wgt id='1435'> +2.8865667e+11 </wgt>
<wgt id='1436'> +2.6909298e+11 </wgt>
<wgt id='1437'> +2.8079985e+11 </wgt>
<wgt id='1438'> +2.6888485e+11 </wgt>
<wgt id='1439'> +2.7486345e+11 </wgt>
<wgt id='1440'> +2.8058997e+11 </wgt>
<wgt id='1441'> +2.7262733e+11 </wgt>
<wgt id='1442'> +2.7682077e+11 </wgt>
<wgt id='1443'> +2.5624973e+11 </wgt>
<wgt id='1444'> +2.8321390e+11 </wgt>
<wgt id='1445'> +2.6425108e+11 </wgt>
<wgt id='1446'> +2.9950209e+11 </wgt>
<wgt id='1447'> +2.9536695e+11 </wgt>
<wgt id='1448'> +2.8013066e+11 </wgt>
<wgt id='1449'> +2.7041833e+11 </wgt>
<wgt id='1450'> +2.6370179e+11 </wgt>
<wgt id='1451'> +2.5875625e+11 </wgt>
<wgt id='1452'> +2.8867810e+11 </wgt>
<wgt id='1453'> +2.9571712e+11 </wgt>
<wgt id='1454'> +2.6446970e+11 </wgt>
<wgt id='1455'> +2.8074073e+11 </wgt>
<wgt id='1456'> +2.6739297e+11 </wgt>
<wgt id='1457'> +2.8184311e+11 </wgt>
<wgt id='1458'> +2.8633657e+11 </wgt>
<wgt id='1459'> +3.0195315e+11 </wgt>
<wgt id='1460'> +2.9569594e+11 </wgt>
<wgt id='1461'> +3.7470993e+11 </wgt>
<wgt id='1462'> +3.4002991e+11 </wgt>
<wgt id='1463'> +3.4025899e+11 </wgt>
<wgt id='1464'> +3.3973609e+11 </wgt>
<wgt id='1465'> +3.4012304e+11 </wgt>
<wgt id='1466'> +3.3994486e+11 </wgt>
<wgt id='1467'> +3.4009387e+11 </wgt>
<wgt id='1468'> +3.3992498e+11 </wgt>
<wgt id='1469'> +3.3950696e+11 </wgt>
<wgt id='1470'> +3.4045455e+11 </wgt>
<wgt id='1471'> +3.4052200e+11 </wgt>
<wgt id='1472'> +3.3952303e+11 </wgt>
<wgt id='1473'> +3.4151841e+11 </wgt>
<wgt id='1474'> +3.3859980e+11 </wgt>
<wgt id='1475'> +3.4130367e+11 </wgt>
<wgt id='1476'> +3.3912779e+11 </wgt>
<wgt id='1477'> +3.3936169e+11 </wgt>
<wgt id='1478'> +3.4159157e+11 </wgt>
<wgt id='1479'> +3.3957919e+11 </wgt>
<wgt id='1480'> +3.4035183e+11 </wgt>
<wgt id='1481'> +3.3877436e+11 </wgt>
<wgt id='1482'> +3.4174072e+11 </wgt>
<wgt id='1483'> +3.4002290e+11 </wgt>
<wgt id='1484'> +3.4005079e+11 </wgt>
<wgt id='1485'> +3.4010538e+11 </wgt>
<wgt id='1486'> +3.3984547e+11 </wgt>
<wgt id='1487'> +3.4004369e+11 </wgt>
<wgt id='1488'> +3.3997487e+11 </wgt>
<wgt id='1489'> +3.3957292e+11 </wgt>
<wgt id='1490'> +3.4126999e+11 </wgt>
<wgt id='1491'> +3.4690183e+11 </wgt>
<wgt id='1492'> +3.3619558e+11 </wgt>
<wgt id='1493'> +3.3550230e+11 </wgt>
<wgt id='1494'> +3.5419303e+11 </wgt>
<wgt id='1495'> +3.3838126e+11 </wgt>
<wgt id='1496'> +3.4180679e+11 </wgt>
<wgt id='1497'> +3.4047495e+11 </wgt>
<wgt id='1498'> +3.3942661e+11 </wgt>
<wgt id='1499'> +3.4369824e+11 </wgt>
<wgt id='1500'> +3.3803925e+11 </wgt>
<wgt id='1501'> +3.3927534e+11 </wgt>
<wgt id='1502'> +3.4213684e+11 </wgt>
<wgt id='1503'> +3.2739267e+11 </wgt>
<wgt id='1504'> +3.5528691e+11 </wgt>
<wgt id='1505'> +3.3922800e+11 </wgt>
<wgt id='1506'> +3.4089677e+11 </wgt>
<wgt id='1507'> +3.5261499e+11 </wgt>
<wgt id='1508'> +3.1498734e+11 </wgt>
<wgt id='1509'> +3.4180503e+11 </wgt>
<wgt id='1510'> +3.3229469e+11 </wgt>
<wgt id='1511'> +3.4003712e+11 </wgt>
<wgt id='1512'> +3.4207734e+11 </wgt>
<wgt id='1513'> +3.3910090e+11 </wgt>
<wgt id='1514'> +3.4102959e+11 </wgt>
<wgt id='1515'> +3.5498978e+11 </wgt>
<wgt id='1516'> +3.3200748e+11 </wgt>
<wgt id='1517'> +3.3801716e+11 </wgt>
<wgt id='1518'> +3.4410822e+11 </wgt>
<wgt id='1519'> +3.3657742e+11 </wgt>
<wgt id='1520'> +3.4246488e+11 </wgt>
<wgt id='1521'> +3.3695635e+11 </wgt>
<wgt id='1522'> +3.4167780e+11 </wgt>
<wgt id='1523'> +3.4405835e+11 </wgt>
<wgt id='1524'> +3.4085751e+11 </wgt>
<wgt id='1525'> +3.4044825e+11 </wgt>
<wgt id='1526'> +3.4295220e+11 </wgt>
<wgt id='1527'> +3.4002991e+11 </wgt>
<wgt id='1528'> +3.3164155e+11 </wgt>
<wgt id='1529'> +3.4887694e+11 </wgt>
<wgt id='1530'> +3.0902990e+11 </wgt>
<wgt id='1531'> +3.6231778e+11 </wgt>
<wgt id='1532'> +3.7400549e+11 </wgt>
<wgt id='1533'> +3.5679063e+11 </wgt>
<wgt id='1534'> +3.5722918e+11 </wgt>
<wgt id='1535'> +3.6728689e+11 </wgt>
<wgt id='1536'> +3.4914486e+11 </wgt>
<wgt id='1537'> +3.7540235e+11 </wgt>
<wgt id='1538'> +3.5582616e+11 </wgt>
<wgt id='1539'> +3.7281810e+11 </wgt>
<wgt id='1540'> +3.7281776e+11 </wgt>
<wgt id='1541'> +3.6675859e+11 </wgt>
<wgt id='1542'> +3.6624476e+11 </wgt>
<wgt id='1543'> +3.7023281e+11 </wgt>
<wgt id='1544'> +3.5724641e+11 </wgt>
<wgt id='1545'> +3.6018916e+11 </wgt>
<wgt id='1546'> +3.5950310e+11 </wgt>
<wgt id='1547'> +3.6445155e+11 </wgt>
<wgt id='1548'> +3.6340810e+11 </wgt>
<wgt id='1549'> +3.5922085e+11 </wgt>
<wgt id='1550'> +3.6637154e+11 </wgt>
<wgt id='1551'> +3.6544556e+11 </wgt>
<wgt id='1552'> +3.6341880e+11 </wgt>
<wgt id='1553'> +3.7710848e+11 </wgt>
<wgt id='1554'> +3.6486868e+11 </wgt>
<wgt id='1555'> +3.6114221e+11 </wgt>
<wgt id='1556'> +3.6700924e+11 </wgt>
<wgt id='1557'> +3.6304863e+11 </wgt>
<wgt id='1558'> +3.6153681e+11 </wgt>
<wgt id='1559'> +3.6279503e+11 </wgt>
<wgt id='1560'> +3.6541286e+11 </wgt>
<wgt id='1561'> +3.6090081e+11 </wgt>
<wgt id='1562'> +3.5381671e+11 </wgt>
<wgt id='1563'> +3.6297277e+11 </wgt>
<wgt id='1564'> +3.6165197e+11 </wgt>
<wgt id='1565'> +3.7187011e+11 </wgt>
<wgt id='1566'> +3.6204704e+11 </wgt>
<wgt id='1567'> +3.5521697e+11 </wgt>
<wgt id='1568'> +3.6186720e+11 </wgt>
<wgt id='1569'> +3.6217367e+11 </wgt>
<wgt id='1570'> +3.7115090e+11 </wgt>
<wgt id='1571'> +3.5976069e+11 </wgt>
<wgt id='1572'> +3.5719308e+11 </wgt>
<wgt id='1573'> +3.7712574e+11 </wgt>
<wgt id='1574'> +2.1855342e+11 </wgt>
<wgt id='1575'> +2.1860421e+11 </wgt>
<wgt id='1576'> +2.1848324e+11 </wgt>
<wgt id='1577'> +2.1856943e+11 </wgt>
<wgt id='1578'> +2.1905390e+11 </wgt>
<wgt id='1579'> +2.1916009e+11 </wgt>
<wgt id='1580'> +2.1892172e+11 </wgt>
<wgt id='1581'> +2.1848925e+11 </wgt>
<wgt id='1582'> +2.1830014e+11 </wgt>
<wgt id='1583'> +2.1799895e+11 </wgt>
<wgt id='1584'> +2.1909861e+11 </wgt>
<wgt id='1585'> +2.1909147e+11 </wgt>
<wgt id='1586'> +2.1828784e+11 </wgt>
<wgt id='1587'> +2.1824064e+11 </wgt>
<wgt id='1588'> +2.1792298e+11 </wgt>
<wgt id='1589'> +2.1804493e+11 </wgt>
<wgt id='1590'> +2.1833937e+11 </wgt>
<wgt id='1591'> +2.1860960e+11 </wgt>
<wgt id='1592'> +2.1783796e+11 </wgt>
<wgt id='1593'> +2.1724482e+11 </wgt>
<wgt id='1594'> +2.2000857e+11 </wgt>
<wgt id='1595'> +2.1576456e+11 </wgt>
<wgt id='1596'> +2.2353191e+11 </wgt>
<wgt id='1597'> +2.2016796e+11 </wgt>
<wgt id='1598'> +2.2002568e+11 </wgt>
<wgt id='1599'> +2.1538489e+11 </wgt>
<wgt id='1600'> +2.2378160e+11 </wgt>
<wgt id='1601'> +2.2059370e+11 </wgt>
<wgt id='1602'> +2.1919763e+11 </wgt>
<wgt id='1603'> +2.3778405e+11 </wgt>
<wgt id='1604'> +2.1808953e+11 </wgt>
</rwgt>
</event>
<event>
 9      1 +2.8343000e+11 1.40000100e+03 7.81738600e-03 7.88881100e-02
       21 -1    0    0  504  503 +0.0000000000e+00 +0.0000000000e+00 +6.7899325305e+02 6.7899325305e+02 0.0000000000e+00 0.0000e+00 -1.0000e+00
       21 -1    0    0  503  504 -0.0000000000e+00 -0.0000000000e+00 -7.2165774023e+02 7.2165774023e+02 0.0000000000e+00 0.0000e+00 -1.0000e+00
       45  2    1    2    0    0 +5.6843418861e-14 +0.0000000000e+00 -4.2664487183e+01 1.4006509933e+03 1.4000010523e+03 0.0000e+00 0.0000e+00
       25  2    3    3    0    0 +3.6142363833e+02 -3.2240132016e+02 -5.1517718732e+02 7.1805445362e+02 1.2500002574e+02 0.0000e+00 0.0000e+00
       35  2    3    3    0    0 -3.6142363833e+02 +3.2240132016e+02 +4.7251270014e+02 6.8259653966e+02 9.0000703208e+01 0.0000e+00 0.0000e+00
        5  1    5    5  501    0 -3.1542762958e+02 +2.6397405361e+02 +4.3682425261e+02 6.0000839656e+02 4.2140000000e+00 0.0000e+00 -1.0000e+00
       -5  1    5    5    0  501 -4.5996008752e+01 +5.8427266547e+01 +3.5688447533e+01 8.2588143099e+01 4.2140000000e+00 0.0000e+00 -1.0000e+00
        5  1    4    4  502    0 +2.8822617616e+02 -2.3762049694e+02 -4.6158378588e+02 5.9381409412e+02 4.2140000000e+00 0.0000e+00 1.0000e+00
       -5  1    4    4    0  502 +7.3197462178e+01 -8.4780823215e+01 -5.3593401444e+01 1.2424035950e+02 4.2140000000e+00 0.0000e+00 1.0000e+00
<mgrwt>
<rscale>  0 0.14000011E+04</rscale>
<asrwt>0</asrwt>
<pdfrwt beam="1">  1       21 0.10446050E+00 0.14000011E+04</pdfrwt>
<pdfrwt beam="2">  1       21 0.11102427E+00 0.14000011E+04</pdfrwt>
<totfact> 0.35857762E+02</totfact>
</mgrwt>
<rwgt>
<wgt id='1001'> +2.8343000e+11 </wgt>
<wgt id='1002'> +3.0068137e+11 </wgt>
<wgt id='1003'> +3.0067815e+11 </wgt>
<wgt id='1004'> +3.3836463e+11 </wgt>
<wgt id='1005'> +2.8343000e+11 </wgt>
<wgt id='1006'> +2.8343000e+11 </wgt>
<wgt id='1007'> +3.0068137e+11 </wgt>
<wgt id='1008'> +3.0067815e+11 </wgt>
<wgt id='1009'> +3.3836463e+11 </wgt>
<wgt id='1010'> +2.8343000e+11 </wgt>
<wgt id='1011'> +2.8343000e+11 </wgt>
<wgt id='1012'> +3.0068137e+11 </wgt>
<wgt id='1013'> +3.0067815e+11 </wgt>
<wgt id='1014'> +3.3836463e+11 </wgt>
<wgt id='1015'> +2.8343000e+11 </wgt>
<wgt id='1016'> +2.5470148e+11 </wgt>
<wgt id='1017'> +2.6924583e+11 </wgt>
<wgt id='1018'> +2.6924313e+11 </wgt>
<wgt id='1019'> +3.0067815e+11 </wgt>
<wgt id='1020'> +2.5470148e+11 </wgt>
<wgt id='1021'> +2.5470148e+11 </wgt>
<wgt id='1022'> +2.6924583e+11 </wgt>
<wgt id='1023'> +2.6924313e+11 </wgt>
<wgt id='1024'> +3.0067815e+11 </wgt>
<wgt id='1025'> +2.5470148e+11 </wgt>
<wgt id='1026'> +2.5470148e+11 </wgt>
<wgt id='1027'> +2.6924583e+11 </wgt>
<wgt id='1028'> +2.6924313e+11 </wgt>
<wgt id='1029'> +3.0067815e+11 </wgt>
<wgt id='1030'> +2.5470148e+11 </wgt>
<wgt id='1031'> +3.1766376e+11 </wgt>
<wgt id='1032'> +3.3836848e+11 </wgt>
<wgt id='1033'> +3.3836463e+11 </wgt>
<wgt id='1034'> +3.8397392e+11 </wgt>
<wgt id='1035'> +3.1766376e+11 </wgt>
<wgt id='1036'> +3.1766376e+11 </wgt>
<wgt id='1037'> +3.3836848e+11 </wgt>
<wgt id='1038'> +3.3836463e+11 </wgt>
<wgt id='1039'> +3.8397392e+11 </wgt>
<wgt id='1040'> +3.1766376e+11 </wgt>
<wgt id='1041'> +3.1766376e+11 </wgt>
<wgt id='1042'> +3.3836848e+11 </wgt>
<wgt id='1043'> +3.3836463e+11 </wgt>
<wgt id='1044'> +3.8397392e+11 </wgt>
<wgt id='1045'> +3.1766376e+11 </wgt>
<wgt id='1046'> +2.8343000e+11 </wgt>
<wgt id='1047'> +2.8343000e+11 </wgt>
<wgt id='1048'> +2.8343000e+11 </wgt>
<wgt id='1049'> +2.8225810e+11 </wgt>
<wgt id='1050'> +2.8304411e+11 </wgt>
<wgt id='1051'> +2.8376841e+11 </wgt>
<wgt id='1052'> +2.8419643e+11 </wgt>
<wgt id='1053'> +2.8189550e+11 </wgt>
<wgt id='1054'> +2.8388557e+11 </wgt>
<wgt id='1055'> +2.8224831e+11 </wgt>
<wgt id='1056'> +2.8179809e+11 </wgt>
<wgt id='1057'> +2.8422590e+11 </wgt>
<wgt id='1058'> +2.8305886e+11 </wgt>
<wgt id='1059'> +2.8541397e+11 </wgt>
<wgt id='1060'> +2.8366129e+11 </wgt>
<wgt id='1061'> +2.8421515e+11 </wgt>
<wgt id='1062'> +2.8400517e+11 </wgt>
<wgt id='1063'> +2.8363861e+11 </wgt>
<wgt id='1064'> +2.8470766e+11 </wgt>
<wgt id='1065'> +2.8487920e+11 </wgt>
<wgt id='1066'> +2.8201637e+11 </wgt>
<wgt id='1067'> +2.7965348e+11 </wgt>
<wgt id='1068'> +2.8382663e+11 </wgt>
<wgt id='1069'> +2.8279812e+11 </wgt>
<wgt id='1070'> +2.8340634e+11 </wgt>
<wgt id='1071'> +2.8494724e+11 </wgt>
<wgt id='1072'> +2.8110952e+11 </wgt>
<wgt id='1073'> +2.8412482e+11 </wgt>
<wgt id='1074'> +2.8302385e+11 </wgt>
<wgt id='1075'> +2.8440324e+11 </wgt>
<wgt id='1076'> +2.8329083e+11 </wgt>
<wgt id='1077'> +2.8299215e+11 </wgt>
<wgt id='1078'> +2.8409710e+11 </wgt>
<wgt id='1079'> +2.8176920e+11 </wgt>
<wgt id='1080'> +2.8276242e+11 </wgt>
<wgt id='1081'> +2.8302912e+11 </wgt>
<wgt id='1082'> +2.8203859e+11 </wgt>
<wgt id='1083'> +2.8400099e+11 </wgt>
<wgt id='1084'> +2.8407075e+11 </wgt>
<wgt id='1085'> +2.8285892e+11 </wgt>
<wgt id='1086'> +2.8278825e+11 </wgt>
<wgt id='1087'> +2.8307982e+11 </wgt>
<wgt id='1088'> +2.8293539e+11 </wgt>
<wgt id='1089'> +2.8279724e+11 </wgt>
<wgt id='1090'> +2.8413231e+11 </wgt>
<wgt id='1091'> +2.8348099e+11 </wgt>
<wgt id='1092'> +2.8370997e+11 </wgt>
<wgt id='1093'> +2.8332937e+11 </wgt>
<wgt id='1094'> +2.8291939e+11 </wgt>
<wgt id='1095'> +2.8354471e+11 </wgt>
<wgt id='1096'> +2.8339308e+11 </wgt>
<wgt id='1097'> +2.8303936e+11 </wgt>
<wgt id='1098'> +2.8307670e+11 </wgt>
<wgt id='1099'> +2.8323900e+11 </wgt>
<wgt id='1100'> +2.8402228e+11 </wgt>
<wgt id='1101'> +2.8341427e+11 </wgt>
<wgt id='1102'> +2.8328931e+11 </wgt>
<wgt id='1103'> +2.8310083e+11 </wgt>
<wgt id='1104'> +2.8310271e+11 </wgt>
<wgt id='1105'> +2.8353423e+11 </wgt>
<wgt id='1106'> +2.8377119e+11 </wgt>
<wgt id='1107'> +2.8334593e+11 </wgt>
<wgt id='1108'> +2.8333507e+11 </wgt>
<wgt id='1109'> +2.8324446e+11 </wgt>
<wgt id='1110'> +2.8376138e+11 </wgt>
<wgt id='1111'> +2.8356158e+11 </wgt>
<wgt id='1112'> +2.8339576e+11 </wgt>
<wgt id='1113'> +2.8373623e+11 </wgt>
<wgt id='1114'> +2.8311014e+11 </wgt>
<wgt id='1115'> +2.8326278e+11 </wgt>
<wgt id='1116'> +2.8372930e+11 </wgt>
<wgt id='1117'> +2.8337558e+11 </wgt>
<wgt id='1118'> +2.8353515e+11 </wgt>
<wgt id='1119'> +2.8325625e+11 </wgt>
<wgt id='1120'> +2.8328973e+11 </wgt>
<wgt id='1121'> +2.8350357e+11 </wgt>
<wgt id='1122'> +2.8322663e+11 </wgt>
<wgt id='1123'> +2.8337152e+11 </wgt>
<wgt id='1124'> +2.8332939e+11 </wgt>
<wgt id='1125'> +2.8359099e+11 </wgt>
<wgt id='1126'> +2.8353520e+11 </wgt>
<wgt id='1127'> +2.8332184e+11 </wgt>
<wgt id='1128'> +2.8347594e+11 </wgt>
<wgt id='1129'> +2.8339537e+11 </wgt>
<wgt id='1130'> +2.8346817e+11 </wgt>
<wgt id='1131'> +2.8369135e+11 </wgt>
<wgt id='1132'> +2.8335367e+11 </wgt>
<wgt id='1133'> +2.8350599e+11 </wgt>
<wgt id='1134'> +2.8341187e+11 </wgt>
<wgt id='1135'> +2.8346724e+11 </wgt>
<wgt id='1136'> +2.8340295e+11 </wgt>
<wgt id='1137'> +2.8329113e+11 </wgt>
<wgt id='1138'> +2.8354151e+11 </wgt>
<wgt id='1139'> +2.8346803e+11 </wgt>
<wgt id='1140'> +2.8364356e+11 </wgt>
<wgt id='1141'> +2.8330825e+11 </wgt>
<wgt id='1142'> +2.8349847e+11 </wgt>
<wgt id='1143'> +2.8359125e+11 </wgt>
<wgt id='1144'> +2.8334615e+11 </wgt>
<wgt id='1145'> +2.8355225e+11 </wgt>
<wgt id='1146'> +2.8340880e+11 </wgt>
<wgt id='1147'> +2.8347195e+11 </wgt>
<wgt id='1148'> +2.8343000e+11 </wgt>
<wgt id='1149'> +2.8343000e+11 </wgt>
<wgt id='1150'> +2.9084246e+11 </wgt>
<wgt id='1151'> +2.8133190e+11 </wgt>
<wgt id='1152'> +2.8576625e+11 </wgt>
<wgt id='1153'> +2.8778367e+11 </wgt>
<wgt id='1154'> +2.8758185e+11 </wgt>
<wgt id='1155'> +2.8829130e+11 </wgt>
<wgt id='1156'> +2.7649493e+11 </wgt>
<wgt id='1157'> +2.7677500e+11 </wgt>
<wgt id='1158'> +2.7767710e+11 </wgt>
<wgt id='1159'> +2.9606552e+11 </wgt>
<wgt id='1160'> +2.8147936e+11 </wgt>
<wgt id='1161'> +2.8556615e+11 </wgt>
<wgt id='1162'> +2.7590811e+11 </wgt>
<wgt id='1163'> +2.8690570e+11 </wgt>
<wgt id='1164'> +2.6753717e+11 </wgt>
<wgt id='1165'> +2.7945853e+11 </wgt>
<wgt id='1166'> +2.8511920e+11 </wgt>
<wgt id='1167'> +2.8003233e+11 </wgt>
<wgt id='1168'> +2.7662213e+11 </wgt>
<wgt id='1169'> +2.7600144e+11 </wgt>
<wgt id='1170'> +2.7568220e+11 </wgt>
<wgt id='1171'> +2.7352135e+11 </wgt>
<wgt id='1172'> +2.7764868e+11 </wgt>
<wgt id='1173'> +2.8811944e+11 </wgt>
<wgt id='1174'> +2.7978847e+11 </wgt>
<wgt id='1175'> +2.7512686e+11 </wgt>
<wgt id='1176'> +2.8639398e+11 </wgt>
<wgt id='1177'> +2.7934541e+11 </wgt>
<wgt id='1178'> +2.8317964e+11 </wgt>
<wgt id='1179'> +2.8023354e+11 </wgt>
<wgt id='1180'> +2.8334723e+11 </wgt>
<wgt id='1181'> +2.7583923e+11 </wgt>
<wgt id='1182'> +2.8173662e+11 </wgt>
<wgt id='1183'> +2.9595107e+11 </wgt>
<wgt id='1184'> +2.7564721e+11 </wgt>
<wgt id='1185'> +2.8012334e+11 </wgt>
<wgt id='1186'> +2.7146100e+11 </wgt>
<wgt id='1187'> +2.8582599e+11 </wgt>
<wgt id='1188'> +2.7642374e+11 </wgt>
<wgt id='1189'> +2.8575690e+11 </wgt>
<wgt id='1190'> +2.8435539e+11 </wgt>
<wgt id='1191'> +2.9538554e+11 </wgt>
<wgt id='1192'> +2.9196547e+11 </wgt>
<wgt id='1193'> +2.9552832e+11 </wgt>
<wgt id='1194'> +2.8477026e+11 </wgt>
<wgt id='1195'> +2.8380267e+11 </wgt>
<wgt id='1196'> +2.9240714e+11 </wgt>
<wgt id='1197'> +2.9419931e+11 </wgt>
<wgt id='1198'> +2.7500627e+11 </wgt>
<wgt id='1199'> +2.8165857e+11 </wgt>
<wgt id='1200'> +2.8215037e+11 </wgt>
<wgt id='1201'> +2.7934038e+11 </wgt>
<wgt id='1202'> +2.8874099e+11 </wgt>
<wgt id='1203'> +2.7752748e+11 </wgt>
<wgt id='1204'> +2.8853479e+11 </wgt>
<wgt id='1205'> +2.8521074e+11 </wgt>
<wgt id='1206'> +2.7639044e+11 </wgt>
<wgt id='1207'> +2.9324162e+11 </wgt>
<wgt id='1208'> +2.7296848e+11 </wgt>
<wgt id='1209'> +2.7850155e+11 </wgt>
<wgt id='1210'> +2.8021259e+11 </wgt>
<wgt id='1211'> +2.8572085e+11 </wgt>
<wgt id='1212'> +2.8372524e+11 </wgt>
<wgt id='1213'> +2.9359284e+11 </wgt>
<wgt id='1214'> +2.7570295e+11 </wgt>
<wgt id='1215'> +2.9223874e+11 </wgt>
<wgt id='1216'> +2.8611807e+11 </wgt>
<wgt id='1217'> +2.7590756e+11 </wgt>
<wgt id='1218'> +2.8481244e+11 </wgt>
<wgt id='1219'> +2.9446592e+11 </wgt>
<wgt id='1220'> +2.7700868e+11 </wgt>
<wgt id='1221'> +2.7498880e+11 </wgt>
<wgt id='1222'> +2.8049570e+11 </wgt>
<wgt id='1223'> +2.7259579e+11 </wgt>
<wgt id='1224'> +2.8354614e+11 </wgt>
<wgt id='1225'> +2.8807320e+11 </wgt>
<wgt id='1226'> +2.9083272e+11 </wgt>
<wgt id='1227'> +2.7277504e+11 </wgt>
<wgt id='1228'> +2.8136484e+11 </wgt>
<wgt id='1229'> +3.0287947e+11 </wgt>
<wgt id='1230'> +2.9432924e+11 </wgt>
<wgt id='1231'> +2.7945853e+11 </wgt>
<wgt id='1232'> +2.8923689e+11 </wgt>
<wgt id='1233'> +2.7825247e+11 </wgt>
<wgt id='1234'> +2.7634742e+11 </wgt>
<wgt id='1235'> +3.0320130e+11 </wgt>
<wgt id='1236'> +2.7659844e+11 </wgt>
<wgt id='1237'> +2.8992109e+11 </wgt>
<wgt id='1238'> +2.8991611e+11 </wgt>
<wgt id='1239'> +2.9232447e+11 </wgt>
<wgt id='1240'> +2.8576741e+11 </wgt>
<wgt id='1241'> +2.8194502e+11 </wgt>
<wgt id='1242'> +2.8081776e+11 </wgt>
<wgt id='1243'> +2.8909281e+11 </wgt>
<wgt id='1244'> +2.8116818e+11 </wgt>
<wgt id='1245'> +2.8190743e+11 </wgt>
<wgt id='1246'> +3.0734871e+11 </wgt>
<wgt id='1247'> +2.8383682e+11 </wgt>
<wgt id='1248'> +2.7547914e+11 </wgt>
<wgt id='1249'> +2.7775372e+11 </wgt>
<wgt id='1250'> +2.9211822e+11 </wgt>
<wgt id='1251'> +2.9866950e+11 </wgt>
<wgt id='1252'> +2.8717090e+11 </wgt>
<wgt id='1253'> +2.8516589e+11 </wgt>
<wgt id='1254'> +2.8866684e+11 </wgt>
<wgt id='1255'> +2.9793399e+11 </wgt>
<wgt id='1256'> +2.9505400e+11 </wgt>
<wgt id='1257'> +2.8511702e+11 </wgt>
<wgt id='1258'> +3.0046479e+11 </wgt>
<wgt id='1259'> +2.9460534e+11 </wgt>
<wgt id='1260'> +3.2550640e+11 </wgt>
<wgt id='1261'> +3.1378711e+11 </wgt>
<wgt id='1262'> +2.8956696e+11 </wgt>
<wgt id='1263'> +2.9667060e+11 </wgt>
<wgt id='1264'> +2.9845277e+11 </wgt>
<wgt id='1265'> +2.9881869e+11 </wgt>
<wgt id='1266'> +2.9420022e+11 </wgt>
<wgt id='1267'> +3.1478826e+11 </wgt>
<wgt id='1268'> +2.9433057e+11 </wgt>
<wgt id='1269'> +2.8721991e+11 </wgt>
<wgt id='1270'> +2.9106278e+11 </wgt>
<wgt id='1271'> +2.7972162e+11 </wgt>
<wgt id='1272'> +2.9336463e+11 </wgt>
<wgt id='1273'> +2.9195894e+11 </wgt>
<wgt id='1274'> +2.8771788e+11 </wgt>
<wgt id='1275'> +2.9862490e+11 </wgt>
<wgt id='1276'> +2.9535407e+11 </wgt>
<wgt id='1277'> +2.9073309e+11 </wgt>
<wgt id='1278'> +2.8611517e+11 </wgt>
<wgt id='1279'> +2.8124995e+11 </wgt>
<wgt id='1280'> +2.9413650e+11 </wgt>
<wgt id='1281'> +2.8587635e+11 </wgt>
<wgt id='1282'> +2.9665368e+11 </wgt>
<wgt id='1283'> +2.9598102e+11 </wgt>
<wgt id='1284'> +3.1493395e+11 </wgt>
<wgt id='1285'> +3.0821301e+11 </wgt>
<wgt id='1286'> +3.2867967e+11 </wgt>
<wgt id='1287'> +3.0327283e+11 </wgt>
<wgt id='1288'> +3.2345809e+11 </wgt>
<wgt id='1289'> +3.1298469e+11 </wgt>
<wgt id='1290'> +3.1139654e+11 </wgt>
<wgt id='1291'> +2.7791980e+11 </wgt>
<wgt id='1292'> +2.9730131e+11 </wgt>
<wgt id='1293'> +3.0007255e+11 </wgt>
<wgt id='1294'> +3.1426373e+11 </wgt>
<wgt id='1295'> +2.9775949e+11 </wgt>
<wgt id='1296'> +3.1512980e+11 </wgt>
<wgt id='1297'> +2.9561010e+11 </wgt>
<wgt id='1298'> +2.8778945e+11 </wgt>
<wgt id='1299'> +2.9846040e+11 </wgt>
<wgt id='1300'> +2.8798365e+11 </wgt>
<wgt id='1301'> +2.8105957e+11 </wgt>
<wgt id='1302'> +2.7530097e+11 </wgt>
<wgt id='1303'> +2.9831528e+11 </wgt>
<wgt id='1304'> +3.0564007e+11 </wgt>
<wgt id='1305'> +2.9831985e+11 </wgt>
<wgt id='1306'> +3.0517439e+11 </wgt>
<wgt id='1307'> +3.0404468e+11 </wgt>
<wgt id='1308'> +3.2521580e+11 </wgt>
<wgt id='1309'> +2.9570786e+11 </wgt>
<wgt id='1310'> +3.0218419e+11 </wgt>
<wgt id='1311'> +3.0820499e+11 </wgt>
<wgt id='1312'> +2.9894603e+11 </wgt>
<wgt id='1313'> +2.9674038e+11 </wgt>
<wgt id='1314'> +3.0439482e+11 </wgt>
<wgt id='1315'> +2.8482319e+11 </wgt>
<wgt id='1316'> +2.9847041e+11 </wgt>
<wgt id='1317'> +3.0117704e+11 </wgt>
<wgt id='1318'> +2.8608542e+11 </wgt>
<wgt id='1319'> +3.0806056e+11 </wgt>
<wgt id='1320'> +3.0886272e+11 </wgt>
<wgt id='1321'> +2.9367734e+11 </wgt>
<wgt id='1322'> +2.9778640e+11 </wgt>
<wgt id='1323'> +2.9879382e+11 </wgt>
<wgt id='1324'> +3.0118797e+11 </wgt>
<wgt id='1325'> +3.1089337e+11 </wgt>
<wgt id='1326'> +3.0265551e+11 </wgt>
<wgt id='1327'> +2.9307578e+11 </wgt>
<wgt id='1328'> +3.0286075e+11 </wgt>
<wgt id='1329'> +2.9773253e+11 </wgt>
<wgt id='1330'> +2.9084717e+11 </wgt>
<wgt id='1331'> +3.1914695e+11 </wgt>
<wgt id='1332'> +2.8584182e+11 </wgt>
<wgt id='1333'> +3.0047288e+11 </wgt>
<wgt id='1334'> +3.1385070e+11 </wgt>
<wgt id='1335'> +2.9247602e+11 </wgt>
<wgt id='1336'> +3.0199587e+11 </wgt>
<wgt id='1337'> +3.0846463e+11 </wgt>
<wgt id='1338'> +2.8987103e+11 </wgt>
<wgt id='1339'> +3.2042470e+11 </wgt>
<wgt id='1340'> +3.0156676e+11 </wgt>
<wgt id='1341'> +3.0453587e+11 </wgt>
<wgt id='1342'> +3.1590799e+11 </wgt>
<wgt id='1343'> +3.1031990e+11 </wgt>
<wgt id='1344'> +3.0302587e+11 </wgt>
<wgt id='1345'> +2.8040988e+11 </wgt>
<wgt id='1346'> +2.9939839e+11 </wgt>
<wgt id='1347'> +2.8670013e+11 </wgt>
<wgt id='1348'> +2.8796409e+11 </wgt>
<wgt id='1349'> +2.8997729e+11 </wgt>
<wgt id='1350'> +3.0030120e+11 </wgt>
<wgt id='1351'> +2.9691164e+11 </wgt>
<wgt id='1352'> +3.0039323e+11 </wgt>
<wgt id='1353'> +2.9708038e+11 </wgt>
<wgt id='1354'> +3.0686604e+11 </wgt>
<wgt id='1355'> +2.7543381e+11 </wgt>
<wgt id='1356'> +2.7819083e+11 </wgt>
<wgt id='1357'> +2.7635245e+11 </wgt>
<wgt id='1358'> +2.7282483e+11 </wgt>
<wgt id='1359'> +2.7621831e+11 </wgt>
<wgt id='1360'> +2.6859137e+11 </wgt>
<wgt id='1361'> +2.7550894e+11 </wgt>
<wgt id='1362'> +2.7711559e+11 </wgt>
<wgt id='1363'> +2.6921494e+11 </wgt>
<wgt id='1364'> +2.8176992e+11 </wgt>
<wgt id='1365'> +2.7310082e+11 </wgt>
<wgt id='1366'> +2.7569154e+11 </wgt>
<wgt id='1367'> +2.7629945e+11 </wgt>
<wgt id='1368'> +2.7545980e+11 </wgt>
<wgt id='1369'> +2.7982574e+11 </wgt>
<wgt id='1370'> +2.7355655e+11 </wgt>
<wgt id='1371'> +2.7300418e+11 </wgt>
<wgt id='1372'> +2.8000362e+11 </wgt>
<wgt id='1373'> +2.7910086e+11 </wgt>
<wgt id='1374'> +2.6733419e+11 </wgt>
<wgt id='1375'> +2.7426091e+11 </wgt>
<wgt id='1376'> +2.7638568e+11 </wgt>
<wgt id='1377'> +2.7531237e+11 </wgt>
<wgt id='1378'> +2.7113377e+11 </wgt>
<wgt id='1379'> +2.7390191e+11 </wgt>
<wgt id='1380'> +2.7389106e+11 </wgt>
<wgt id='1381'> +2.8076083e+11 </wgt>
<wgt id='1382'> +2.7508091e+11 </wgt>
<wgt id='1383'> +2.7546986e+11 </wgt>
<wgt id='1384'> +2.7384421e+11 </wgt>
<wgt id='1385'> +2.7405200e+11 </wgt>
<wgt id='1386'> +2.7748286e+11 </wgt>
<wgt id='1387'> +2.7445962e+11 </wgt>
<wgt id='1388'> +2.7177211e+11 </wgt>
<wgt id='1389'> +2.7369497e+11 </wgt>
<wgt id='1390'> +2.7428067e+11 </wgt>
<wgt id='1391'> +2.7317114e+11 </wgt>
<wgt id='1392'> +2.7328176e+11 </wgt>
<wgt id='1393'> +2.7334528e+11 </wgt>
<wgt id='1394'> +2.7311352e+11 </wgt>
<wgt id='1395'> +2.7120200e+11 </wgt>
<wgt id='1396'> +2.7649417e+11 </wgt>
<wgt id='1397'> +2.7602119e+11 </wgt>
<wgt id='1398'> +2.7602096e+11 </wgt>
<wgt id='1399'> +2.7098221e+11 </wgt>
<wgt id='1400'> +2.7254351e+11 </wgt>
<wgt id='1401'> +2.7386746e+11 </wgt>
<wgt id='1402'> +2.7870452e+11 </wgt>
<wgt id='1403'> +2.7842627e+11 </wgt>
<wgt id='1404'> +2.7309703e+11 </wgt>
<wgt id='1405'> +2.8154623e+11 </wgt>
<wgt id='1406'> +2.7511753e+11 </wgt>
<wgt id='1407'> +2.7616151e+11 </wgt>
<wgt id='1408'> +2.7855466e+11 </wgt>
<wgt id='1409'> +2.7340183e+11 </wgt>
<wgt id='1410'> +2.7329197e+11 </wgt>
<wgt id='1411'> +2.7511429e+11 </wgt>
<wgt id='1412'> +2.7436854e+11 </wgt>
<wgt id='1413'> +2.7233023e+11 </wgt>
<wgt id='1414'> +2.7710193e+11 </wgt>
<wgt id='1415'> +2.8131416e+11 </wgt>
<wgt id='1416'> +2.7860729e+11 </wgt>
<wgt id='1417'> +2.6862253e+11 </wgt>
<wgt id='1418'> +2.7715757e+11 </wgt>
<wgt id='1419'> +2.7894782e+11 </wgt>
<wgt id='1420'> +2.7469094e+11 </wgt>
<wgt id='1421'> +2.8148718e+11 </wgt>
<wgt id='1422'> +2.6780971e+11 </wgt>
<wgt id='1423'> +2.8069109e+11 </wgt>
<wgt id='1424'> +2.7643291e+11 </wgt>
<wgt id='1425'> +2.7562028e+11 </wgt>
<wgt id='1426'> +2.7905296e+11 </wgt>
<wgt id='1427'> +2.7540948e+11 </wgt>
<wgt id='1428'> +2.7530303e+11 </wgt>
<wgt id='1429'> +2.7113670e+11 </wgt>
<wgt id='1430'> +2.7065818e+11 </wgt>
<wgt id='1431'> +2.7077204e+11 </wgt>
<wgt id='1432'> +2.7745587e+11 </wgt>
<wgt id='1433'> +2.7616810e+11 </wgt>
<wgt id='1434'> +2.8206994e+11 </wgt>
<wgt id='1435'> +2.7458313e+11 </wgt>
<wgt id='1436'> +2.7963297e+11 </wgt>
<wgt id='1437'> +2.7823145e+11 </wgt>
<wgt id='1438'> +2.7341852e+11 </wgt>
<wgt id='1439'> +2.7603649e+11 </wgt>
<wgt id='1440'> +2.8010365e+11 </wgt>
<wgt id='1441'> +2.7544237e+11 </wgt>
<wgt id='1442'> +2.8318521e+11 </wgt>
<wgt id='1443'> +2.7362724e+11 </wgt>
<wgt id='1444'> +2.7361455e+11 </wgt>
<wgt id='1445'> +2.7847641e+11 </wgt>
<wgt id='1446'> +2.7754398e+11 </wgt>
<wgt id='1447'> +2.7137641e+11 </wgt>
<wgt id='1448'> +2.7778762e+11 </wgt>
<wgt id='1449'> +2.7671052e+11 </wgt>
<wgt id='1450'> +2.7349690e+11 </wgt>
<wgt id='1451'> +2.7666091e+11 </wgt>
<wgt id='1452'> +2.7867469e+11 </wgt>
<wgt id='1453'> +2.8064001e+11 </wgt>
<wgt id='1454'> +2.6885251e+11 </wgt>
<wgt id='1455'> +2.7468714e+11 </wgt>
<wgt id='1456'> +2.7467751e+11 </wgt>
<wgt id='1457'> +2.7420560e+11 </wgt>
<wgt id='1458'> +2.7723127e+11 </wgt>
<wgt id='1459'> +3.0505213e+11 </wgt>
<wgt id='1460'> +3.0037823e+11 </wgt>
<wgt id='1461'> +3.4717762e+11 </wgt>
<wgt id='1462'> +2.9972738e+11 </wgt>
<wgt id='1463'> +2.9997826e+11 </wgt>
<wgt id='1464'> +2.9940565e+11 </wgt>
<wgt id='1465'> +2.9978865e+11 </wgt>
<wgt id='1466'> +2.9967142e+11 </wgt>
<wgt id='1467'> +2.9989195e+11 </wgt>
<wgt id='1468'> +2.9945740e+11 </wgt>
<wgt id='1469'> +2.9927614e+11 </wgt>
<wgt id='1470'> +3.0009390e+11 </wgt>
<wgt id='1471'> +3.0020707e+11 </wgt>
<wgt id='1472'> +2.9923333e+11 </wgt>
<wgt id='1473'> +3.0087686e+11 </wgt>
<wgt id='1474'> +2.9862332e+11 </wgt>
<wgt id='1475'> +3.0082496e+11 </wgt>
<wgt id='1476'> +2.9894921e+11 </wgt>
<wgt id='1477'> +2.9915285e+11 </wgt>
<wgt id='1478'> +3.0106944e+11 </wgt>
<wgt id='1479'> +2.9914445e+11 </wgt>
<wgt id='1480'> +3.0013418e+11 </wgt>
<wgt id='1481'> +2.9930878e+11 </wgt>
<wgt id='1482'> +3.0029182e+11 </wgt>
<wgt id='1483'> +2.9982626e+11 </wgt>
<wgt id='1484'> +2.9958690e+11 </wgt>
<wgt id='1485'> +2.9992801e+11 </wgt>
<wgt id='1486'> +2.9924424e+11 </wgt>
<wgt id='1487'> +2.9997479e+11 </wgt>
<wgt id='1488'> +2.9941605e+11 </wgt>
<wgt id='1489'> +2.9937659e+11 </wgt>
<wgt id='1490'> +3.0067834e+11 </wgt>
<wgt id='1491'> +3.0464723e+11 </wgt>
<wgt id='1492'> +2.9698117e+11 </wgt>
<wgt id='1493'> +2.9623329e+11 </wgt>
<wgt id='1494'> +3.1067742e+11 </wgt>
<wgt id='1495'> +2.9909833e+11 </wgt>
<wgt id='1496'> +3.0040206e+11 </wgt>
<wgt id='1497'> +2.9992631e+11 </wgt>
<wgt id='1498'> +2.9945552e+11 </wgt>
<wgt id='1499'> +3.0159022e+11 </wgt>
<wgt id='1500'> +2.9870821e+11 </wgt>
<wgt id='1501'> +3.0019497e+11 </wgt>
<wgt id='1502'> +2.9848805e+11 </wgt>
<wgt id='1503'> +2.9661880e+11 </wgt>
<wgt id='1504'> +3.0301946e+11 </wgt>
<wgt id='1505'> +3.0076474e+11 </wgt>
<wgt id='1506'> +2.9873204e+11 </wgt>
<wgt id='1507'> +3.0097511e+11 </wgt>
<wgt id='1508'> +2.9912100e+11 </wgt>
<wgt id='1509'> +3.0029526e+11 </wgt>
<wgt id='1510'> +2.9729058e+11 </wgt>
<wgt id='1511'> +3.0083080e+11 </wgt>
<wgt id='1512'> +2.9941806e+11 </wgt>
<wgt id='1513'> +2.9964962e+11 </wgt>
<wgt id='1514'> +2.9979655e+11 </wgt>
<wgt id='1515'> +3.0209931e+11 </wgt>
<wgt id='1516'> +3.0021152e+11 </wgt>
<wgt id='1517'> +2.9935902e+11 </wgt>
<wgt id='1518'> +3.0002295e+11 </wgt>
<wgt id='1519'> +2.9811210e+11 </wgt>
<wgt id='1520'> +3.0087725e+11 </wgt>
<wgt id='1521'> +2.9897526e+11 </wgt>
<wgt id='1522'> +3.0018029e+11 </wgt>
<wgt id='1523'> +3.0110149e+11 </wgt>
<wgt id='1524'> +3.0107144e+11 </wgt>
<wgt id='1525'> +3.0098278e+11 </wgt>
<wgt id='1526'> +3.0048470e+11 </wgt>
<wgt id='1527'> +2.9972738e+11 </wgt>
<wgt id='1528'> +2.9957536e+11 </wgt>
<wgt id='1529'> +2.9934542e+11 </wgt>
<wgt id='1530'> +2.9557516e+11 </wgt>
<wgt id='1531'> +2.9657361e+11 </wgt>
<wgt id='1532'> +2.9418385e+11 </wgt>
<wgt id='1533'> +2.9220172e+11 </wgt>
<wgt id='1534'> +2.9496088e+11 </wgt>
<wgt id='1535'> +2.9904598e+11 </wgt>
<wgt id='1536'> +2.9348028e+11 </wgt>
<wgt id='1537'> +2.9646152e+11 </wgt>
<wgt id='1538'> +2.9340899e+11 </wgt>
<wgt id='1539'> +3.0282612e+11 </wgt>
<wgt id='1540'> +2.9569276e+11 </wgt>
<wgt id='1541'> +2.9664831e+11 </wgt>
<wgt id='1542'> +2.9647187e+11 </wgt>
<wgt id='1543'> +2.9759218e+11 </wgt>
<wgt id='1544'> +2.9467319e+11 </wgt>
<wgt id='1545'> +2.9461959e+11 </wgt>
<wgt id='1546'> +2.9267954e+11 </wgt>
<wgt id='1547'> +2.9886468e+11 </wgt>
<wgt id='1548'> +2.9455717e+11 </wgt>
<wgt id='1549'> +2.9324641e+11 </wgt>
<wgt id='1550'> +2.9715549e+11 </wgt>
<wgt id='1551'> +2.9722346e+11 </wgt>
<wgt id='1552'> +2.9588043e+11 </wgt>
<wgt id='1553'> +2.9834774e+11 </wgt>
<wgt id='1554'> +2.9641205e+11 </wgt>
<wgt id='1555'> +2.9716887e+11 </wgt>
<wgt id='1556'> +2.9893050e+11 </wgt>
<wgt id='1557'> +2.9589673e+11 </wgt>
<wgt id='1558'> +2.9654425e+11 </wgt>
<wgt id='1559'> +2.9456328e+11 </wgt>
<wgt id='1560'> +2.9536239e+11 </wgt>
<wgt id='1561'> +2.9259402e+11 </wgt>
<wgt id='1562'> +2.9512978e+11 </wgt>
<wgt id='1563'> +2.9648920e+11 </wgt>
<wgt id='1564'> +2.9619552e+11 </wgt>
<wgt id='1565'> +2.9877313e+11 </wgt>
<wgt id='1566'> +2.9688528e+11 </wgt>
<wgt id='1567'> +3.0014520e+11 </wgt>
<wgt id='1568'> +2.9651874e+11 </wgt>
<wgt id='1569'> +2.9621185e+11 </wgt>
<wgt id='1570'> +2.9796988e+11 </wgt>
<wgt id='1571'> +2.9637094e+11 </wgt>
<wgt id='1572'> +2.9825548e+11 </wgt>
<wgt id='1573'> +2.9933239e+11 </wgt>
<wgt id='1574'> +2.6366554e+11 </wgt>
<wgt id='1575'> +2.6373747e+11 </wgt>
<wgt id='1576'> +2.6359797e+11 </wgt>
<wgt id='1577'> +2.6368374e+11 </wgt>
<wgt id='1578'> +2.6427308e+11 </wgt>
<wgt id='1579'> +2.6453275e+11 </wgt>
<wgt id='1580'> +2.6430481e+11 </wgt>
<wgt id='1581'> +2.6303699e+11 </wgt>
<wgt id='1582'> +2.6272917e+11 </wgt>
<wgt id='1583'> +2.6323026e+11 </wgt>
<wgt id='1584'> +2.6424167e+11 </wgt>
<wgt id='1585'> +2.6385267e+11 </wgt>
<wgt id='1586'> +2.6263862e+11 </wgt>
<wgt id='1587'> +2.6289601e+11 </wgt>
<wgt id='1588'> +2.6239223e+11 </wgt>
<wgt id='1589'> +2.6341810e+11 </wgt>
<wgt id='1590'> +2.6347626e+11 </wgt>
<wgt id='1591'> +2.6373277e+11 </wgt>
<wgt id='1592'> +2.6263418e+11 </wgt>
<wgt id='1593'> +2.6280632e+11 </wgt>
<wgt id='1594'> +2.6447227e+11 </wgt>
<wgt id='1595'> +2.6144540e+11 </wgt>
<wgt id='1596'> +2.6722438e+11 </wgt>
<wgt id='1597'> +2.6539287e+11 </wgt>
<wgt id='1598'> +2.6562212e+11 </wgt>
<wgt id='1599'> +2.6093497e+11 </wgt>
<wgt id='1600'> +2.6807171e+11 </wgt>
<wgt id='1601'> +2.6580685e+11 </wgt>
<wgt id='1602'> +2.6372285e+11 </wgt>
<wgt id='1603'> +2.7396467e+11 </wgt>
<wgt id='1604'> +2.6374672e+11 </wgt>
</rwgt>
</event>
<event>
 9      1 +2.8343000e+11 1.40000100e+03 7.81738600e-03 7.88881100e-02
       21 -1    0    0  504  503 +0.0000000000e+00 +0.0000000000e+00 +1.9442751837e+03 1.9442751837e+03 0.0000000000e+00 0.0000e+00 -1.0000e+00
       21 -1    0    0  503  504 -0.0000000000e+00 -0.0000000000e+00 -2.5202225947e+02 2.5202225947e+02 0.0000000000e+00 0.0000e+00 -1.0000e+00
       45  2    1    2    0    0 +0.0000000000e+00 -5.6843418861e-14 +1.6922529242e+03 2.1962974432e+03 1.4000008926e+03 0.0000e+00 0.0000e+00
       25  2    3    3    0    0 +4.2601137998e+02 -4.6118129173e+02 +1.3039743538e+03 1.4526347385e+03 1.2499875398e+02 0.0000e+00 0.0000e+00
       35  2    3    3    0    0 -4.2601137998e+02 +4.6118129173e+02 +3.8827857048e+02 7.4366270468e+02 9.0000501765e+01 0.0000e+00 0.0000e+00
        5  1    5    5  501    0 -1.7900987151e+02 +1.5665873943e+02 +1.8873787784e+02 3.0368773282e+02 4.2140000000e+00 0.0000e+00 1.0000e+00
       -5  1    5    5    0  501 -2.4700150847e+02 +3.0452255230e+02 +1.9954069265e+02 4.3997497186e+02 4.2140000000e+00 0.0000e+00 1.0000e+00
        5  1    4    4  502    0 +3.1204908226e+02 -3.0815441025e+02 +1.0221747752e+03 1.1122916880e+03 4.2140000000e+00 0.0000e+00 1.0000e+00
       -5  1    4    4    0  502 +1.1396229772e+02 -1.5302688149e+02 +2.8179957852e+02 3.4034305048e+02 4.2140000000e+00 0.0000e+00 1.0000e+00
<mgrwt>
<rscale>  0 0.14000009E+04</rscale>
<asrwt>0</asrwt>
<pdfrwt beam="1">  1       21 0.29911925E+00 0.14000009E+04</pdfrwt>
<pdfrwt beam="2">  1       21 0.38772657E-01 0.14000009E+04</pdfrwt>
<totfact> 0.12805974E+02</totfact>
</mgrwt>
<rwgt>
<wgt id='1001'> +2.8343000e+11 </wgt>
<wgt id='1002'> +2.8877770e+11 </wgt>
<wgt id='1003'> +2.8877493e+11 </wgt>
<wgt id='1004'> +3.2797669e+11 </wgt>
<wgt id='1005'> +2.8343000e+11 </wgt>
<wgt id='1006'> +2.8343000e+11 </wgt>
<wgt id='1007'> +2.8877770e+11 </wgt>
<wgt id='1008'> +2.8877493e+11 </wgt>
<wgt id='1009'> +3.2797669e+11 </wgt>
<wgt id='1010'> +2.8343000e+11 </wgt>
<wgt id='1011'> +2.8343000e+11 </wgt>
<wgt id='1012'> +2.8877770e+11 </wgt>
<wgt id='1013'> +2.8877493e+11 </wgt>
<wgt id='1014'> +3.2797669e+11 </wgt>
<wgt id='1015'> +2.8343000e+11 </wgt>
<wgt id='1016'> +2.5179907e+11 </wgt>
<wgt id='1017'> +2.5627008e+11 </wgt>
<wgt id='1018'> +2.5626776e+11 </wgt>
<wgt id='1019'> +2.8877493e+11 </wgt>
<wgt id='1020'> +2.5179907e+11 </wgt>
<wgt id='1021'> +2.5179907e+11 </wgt>
<wgt id='1022'> +2.5627008e+11 </wgt>
<wgt id='1023'> +2.5626776e+11 </wgt>
<wgt id='1024'> +2.8877493e+11 </wgt>
<wgt id='1025'> +2.5179907e+11 </wgt>
<wgt id='1026'> +2.5179907e+11 </wgt>
<wgt id='1027'> +2.5627008e+11 </wgt>
<wgt id='1028'> +2.5626776e+11 </wgt>
<wgt id='1029'> +2.8877493e+11 </wgt>
<wgt id='1030'> +2.5179907e+11 </wgt>
<wgt id='1031'> +3.2150138e+11 </wgt>
<wgt id='1032'> +3.2798005e+11 </wgt>
<wgt id='1033'> +3.2797669e+11 </wgt>
<wgt id='1034'> +3.7571663e+11 </wgt>
<wgt id='1035'> +3.2150138e+11 </wgt>
<wgt id='1036'> +3.2150138e+11 </wgt>
<wgt id='1037'> +3.2798005e+11 </wgt>
<wgt id='1038'> +3.2797669e+11 </wgt>
<wgt id='1039'> +3.7571663e+11 </wgt>
<wgt id='1040'> +3.2150138e+11 </wgt>
<wgt id='1041'> +3.2150138e+11 </wgt>
<wgt id='1042'> +3.2798005e+11 </wgt>
<wgt id='1043'> +3.2797669e+11 </wgt>
<wgt id='1044'> +3.7571663e+11 </wgt>
<wgt id='1045'> +3.2150138e+11 </wgt>
<wgt id='1046'> +2.8343000e+11 </wgt>
<wgt id='1047'> +2.8343000e+11 </wgt>
<wgt id='1048'> +2.8343000e+11 </wgt>
<wgt id='1049'> +2.8339518e+11 </wgt>
<wgt id='1050'> +2.8250314e+11 </wgt>
<wgt id='1051'> +2.8344419e+11 </wgt>
<wgt id='1052'> +2.8356777e+11 </wgt>
<wgt id='1053'> +2.8181389e+11 </wgt>
<wgt id='1054'> +2.8536098e+11 </wgt>
<wgt id='1055'> +2.8201127e+11 </wgt>
<wgt id='1056'> +2.8168004e+11 </wgt>
<wgt id='1057'> +2.8248189e+11 </wgt>
<wgt id='1058'> +2.8339177e+11 </wgt>
<wgt id='1059'> +2.8559604e+11 </wgt>
<wgt id='1060'> +2.8288644e+11 </wgt>
<wgt id='1061'> +2.8464631e+11 </wgt>
<wgt id='1062'> +2.8508869e+11 </wgt>
<wgt id='1063'> +2.8466246e+11 </wgt>
<wgt id='1064'> +2.8501181e+11 </wgt>
<wgt id='1065'> +2.8536908e+11 </wgt>
<wgt id='1066'> +2.8238659e+11 </wgt>
<wgt id='1067'> +2.8185720e+11 </wgt>
<wgt id='1068'> +2.8416051e+11 </wgt>
<wgt id='1069'> +2.8250160e+11 </wgt>
<wgt id='1070'> +2.8276878e+11 </wgt>
<wgt id='1071'> +2.8490758e+11 </wgt>
<wgt id='1072'> +2.8157301e+11 </wgt>
<wgt id='1073'> +2.8336652e+11 </wgt>
<wgt id='1074'> +2.8320984e+11 </wgt>
<wgt id='1075'> +2.8140964e+11 </wgt>
<wgt id='1076'> +2.8400383e+11 </wgt>
<wgt id='1077'> +2.8028268e+11 </wgt>
<wgt id='1078'> +2.8191189e+11 </wgt>
<wgt id='1079'> +2.8286618e+11 </wgt>
<wgt id='1080'> +2.8306579e+11 </wgt>
<wgt id='1081'> +2.8296231e+11 </wgt>
<wgt id='1082'> +2.8345774e+11 </wgt>
<wgt id='1083'> +2.8414682e+11 </wgt>
<wgt id='1084'> +2.8385133e+11 </wgt>
<wgt id='1085'> +2.8196304e+11 </wgt>
<wgt id='1086'> +2.8554780e+11 </wgt>
<wgt id='1087'> +2.8415883e+11 </wgt>
<wgt id='1088'> +2.8290968e+11 </wgt>
<wgt id='1089'> +2.8268464e+11 </wgt>
<wgt id='1090'> +2.8428325e+11 </wgt>
<wgt id='1091'> +2.8388796e+11 </wgt>
<wgt id='1092'> +2.8326265e+11 </wgt>
<wgt id='1093'> +2.8313751e+11 </wgt>
<wgt id='1094'> +2.8160929e+11 </wgt>
<wgt id='1095'> +2.8409450e+11 </wgt>
<wgt id='1096'> +2.8360407e+11 </wgt>
<wgt id='1097'> +2.8241826e+11 </wgt>
<wgt id='1098'> +2.8313614e+11 </wgt>
<wgt id='1099'> +2.8357701e+11 </wgt>
<wgt id='1100'> +2.8372634e+11 </wgt>
<wgt id='1101'> +2.8348747e+11 </wgt>
<wgt id='1102'> +2.8332894e+11 </wgt>
<wgt id='1103'> +2.8178375e+11 </wgt>
<wgt id='1104'> +2.8382706e+11 </wgt>
<wgt id='1105'> +2.8356210e+11 </wgt>
<wgt id='1106'> +2.8399956e+11 </wgt>
<wgt id='1107'> +2.8403799e+11 </wgt>
<wgt id='1108'> +2.8307371e+11 </wgt>
<wgt id='1109'> +2.8364398e+11 </wgt>
<wgt id='1110'> +2.8338751e+11 </wgt>
<wgt id='1111'> +2.8446874e+11 </wgt>
<wgt id='1112'> +2.8300028e+11 </wgt>
<wgt id='1113'> +2.8374975e+11 </wgt>
<wgt id='1114'> +2.8309348e+11 </wgt>
<wgt id='1115'> +2.8222290e+11 </wgt>
<wgt id='1116'> +2.8472017e+11 </wgt>
<wgt id='1117'> +2.8324474e+11 </wgt>
<wgt id='1118'> +2.8422344e+11 </wgt>
<wgt id='1119'> +2.8250334e+11 </wgt>
<wgt id='1120'> +2.8236535e+11 </wgt>
<wgt id='1121'> +2.8333505e+11 </wgt>
<wgt id='1122'> +2.8259396e+11 </wgt>
<wgt id='1123'> +2.8335368e+11 </wgt>
<wgt id='1124'> +2.8376984e+11 </wgt>
<wgt id='1125'> +2.8362099e+11 </wgt>
<wgt id='1126'> +2.8361952e+11 </wgt>
<wgt id='1127'> +2.8338407e+11 </wgt>
<wgt id='1128'> +2.8324494e+11 </wgt>
<wgt id='1129'> +2.8301117e+11 </wgt>
<wgt id='1130'> +2.8346893e+11 </wgt>
<wgt id='1131'> +2.8450341e+11 </wgt>
<wgt id='1132'> +2.8317014e+11 </wgt>
<wgt id='1133'> +2.8372013e+11 </wgt>
<wgt id='1134'> +2.8329503e+11 </wgt>
<wgt id='1135'> +2.8351771e+11 </wgt>
<wgt id='1136'> +2.8313553e+11 </wgt>
<wgt id='1137'> +2.8299413e+11 </wgt>
<wgt id='1138'> +2.8363980e+11 </wgt>
<wgt id='1139'> +2.8376654e+11 </wgt>
<wgt id='1140'> +2.8386563e+11 </wgt>
<wgt id='1141'> +2.8294628e+11 </wgt>
<wgt id='1142'> +2.8345975e+11 </wgt>
<wgt id='1143'> +2.8379352e+11 </wgt>
<wgt id='1144'> +2.8333741e+11 </wgt>
<wgt id='1145'> +2.8369561e+11 </wgt>
<wgt id='1146'> +2.8366183e+11 </wgt>
<wgt id='1147'> +2.8353676e+11 </wgt>
<wgt id='1148'> +2.8343000e+11 </wgt>
<wgt id='1149'> +2.8343000e+11 </wgt>
<wgt id='1150'> +2.8180346e+11 </wgt>
<wgt id='1151'> +2.7886369e+11 </wgt>
<wgt id='1152'> +2.8225771e+11 </wgt>
<wgt id='1153'> +2.8536198e+11 </wgt>
<wgt id='1154'> +2.7030326e+11 </wgt>
<wgt id='1155'> +3.0110565e+11 </wgt>
<wgt id='1156'> +2.8699574e+11 </wgt>
<wgt id='1157'> +2.8198293e+11 </wgt>
<wgt id='1158'> +2.8082049e+11 </wgt>
<wgt id='1159'> +2.9150474e+11 </wgt>
<wgt id='1160'> +2.6938786e+11 </wgt>
<wgt id='1161'> +3.0005418e+11 </wgt>
<wgt id='1162'> +2.8177012e+11 </wgt>
<wgt id='1163'> +2.8724291e+11 </wgt>
<wgt id='1164'> +2.6669568e+11 </wgt>
<wgt id='1165'> +2.7604065e+11 </wgt>
<wgt id='1166'> +2.8215299e+11 </wgt>
<wgt id='1167'> +2.7984841e+11 </wgt>
<wgt id='1168'> +2.6596660e+11 </wgt>
<wgt id='1169'> +2.7068327e+11 </wgt>
<wgt id='1170'> +2.8271489e+11 </wgt>
<wgt id='1171'> +2.7269451e+11 </wgt>
<wgt id='1172'> +2.6581369e+11 </wgt>
<wgt id='1173'> +2.8915830e+11 </wgt>
<wgt id='1174'> +2.8150035e+11 </wgt>
<wgt id='1175'> +2.7707136e+11 </wgt>
<wgt id='1176'> +2.8970790e+11 </wgt>
<wgt id='1177'> +2.9040800e+11 </wgt>
<wgt id='1178'> +2.8355983e+11 </wgt>
<wgt id='1179'> +2.9705889e+11 </wgt>
<wgt id='1180'> +2.8869297e+11 </wgt>
<wgt id='1181'> +2.7923805e+11 </wgt>
<wgt id='1182'> +2.8310707e+11 </wgt>
<wgt id='1183'> +2.9316030e+11 </wgt>
<wgt id='1184'> +2.6850211e+11 </wgt>
<wgt id='1185'> +2.9084122e+11 </wgt>
<wgt id='1186'> +2.7487515e+11 </wgt>
<wgt id='1187'> +2.9674580e+11 </wgt>
<wgt id='1188'> +2.9705603e+11 </wgt>
<wgt id='1189'> +2.9174634e+11 </wgt>
<wgt id='1190'> +2.8465498e+11 </wgt>
<wgt id='1191'> +3.0286807e+11 </wgt>
<wgt id='1192'> +2.8696464e+11 </wgt>
<wgt id='1193'> +2.8718723e+11 </wgt>
<wgt id='1194'> +2.7110017e+11 </wgt>
<wgt id='1195'> +2.9298399e+11 </wgt>
<wgt id='1196'> +2.8005460e+11 </wgt>
<wgt id='1197'> +2.9043430e+11 </wgt>
<wgt id='1198'> +2.7684489e+11 </wgt>
<wgt id='1199'> +2.8605214e+11 </wgt>
<wgt id='1200'> +2.8704752e+11 </wgt>
<wgt id='1201'> +2.9220768e+11 </wgt>
<wgt id='1202'> +2.7820016e+11 </wgt>
<wgt id='1203'> +2.8899292e+11 </wgt>
<wgt id='1204'> +2.7261174e+11 </wgt>
<wgt id='1205'> +2.9348506e+11 </wgt>
<wgt id='1206'> +2.7632171e+11 </wgt>
<wgt id='1207'> +2.9816470e+11 </wgt>
<wgt id='1208'> +2.8035968e+11 </wgt>
<wgt id='1209'> +2.7999443e+11 </wgt>
<wgt id='1210'> +2.8370462e+11 </wgt>
<wgt id='1211'> +2.8651629e+11 </wgt>
<wgt id='1212'> +2.7251292e+11 </wgt>
<wgt id='1213'> +2.7846813e+11 </wgt>
<wgt id='1214'> +2.7896632e+11 </wgt>
<wgt id='1215'> +2.9317224e+11 </wgt>
<wgt id='1216'> +2.7697235e+11 </wgt>
<wgt id='1217'> +2.8579448e+11 </wgt>
<wgt id='1218'> +2.7805844e+11 </wgt>
<wgt id='1219'> +2.8484141e+11 </wgt>
<wgt id='1220'> +2.7613665e+11 </wgt>
<wgt id='1221'> +2.6725030e+11 </wgt>
<wgt id='1222'> +2.7795957e+11 </wgt>
<wgt id='1223'> +2.7524324e+11 </wgt>
<wgt id='1224'> +2.8035498e+11 </wgt>
<wgt id='1225'> +2.7944132e+11 </wgt>
<wgt id='1226'> +2.8352564e+11 </wgt>
<wgt id='1227'> +2.6683481e+11 </wgt>
<wgt id='1228'> +2.7240458e+11 </wgt>
<wgt id='1229'> +2.9475012e+11 </wgt>
<wgt id='1230'> +2.8514107e+11 </wgt>
<wgt id='1231'> +2.7604065e+11 </wgt>
<wgt id='1232'> +2.9108324e+11 </wgt>
<wgt id='1233'> +2.8033552e+11 </wgt>
<wgt id='1234'> +2.8685374e+11 </wgt>
<wgt id='1235'> +3.0645412e+11 </wgt>
<wgt id='1236'> +2.8890744e+11 </wgt>
<wgt id='1237'> +2.9562842e+11 </wgt>
<wgt id='1238'> +3.0780917e+11 </wgt>
<wgt id='1239'> +2.9425979e+11 </wgt>
<wgt id='1240'> +2.8051095e+11 </wgt>
<wgt id='1241'> +2.8621476e+11 </wgt>
<wgt id='1242'> +2.8367578e+11 </wgt>
<wgt id='1243'> +2.7603805e+11 </wgt>
<wgt id='1244'> +2.8928411e+11 </wgt>
<wgt id='1245'> +2.6922060e+11 </wgt>
<wgt id='1246'> +3.0274663e+11 </wgt>
<wgt id='1247'> +2.7878560e+11 </wgt>
<wgt id='1248'> +2.7576224e+11 </wgt>
<wgt id='1249'> +2.7570747e+11 </wgt>
<wgt id='1250'> +2.9819658e+11 </wgt>
<wgt id='1251'> +3.1155346e+11 </wgt>
<wgt id='1252'> +2.8710946e+11 </wgt>
<wgt id='1253'> +3.1681564e+11 </wgt>
<wgt id='1254'> +2.9350302e+11 </wgt>
<wgt id='1255'> +3.1953979e+11 </wgt>
<wgt id='1256'> +3.1376826e+11 </wgt>
<wgt id='1257'> +2.8819622e+11 </wgt>
<wgt id='1258'> +2.9549122e+11 </wgt>
<wgt id='1259'> +3.3093879e+11 </wgt>
<wgt id='1260'> +3.5369855e+11 </wgt>
<wgt id='1261'> +3.3877352e+11 </wgt>
<wgt id='1262'> +3.0630994e+11 </wgt>
<wgt id='1263'> +3.1236999e+11 </wgt>
<wgt id='1264'> +3.0470953e+11 </wgt>
<wgt id='1265'> +2.8385140e+11 </wgt>
<wgt id='1266'> +3.0666431e+11 </wgt>
<wgt id='1267'> +4.0505138e+11 </wgt>
<wgt id='1268'> +2.8450471e+11 </wgt>
<wgt id='1269'> +2.7987012e+11 </wgt>
<wgt id='1270'> +3.2805642e+11 </wgt>
<wgt id='1271'> +2.4530009e+11 </wgt>
<wgt id='1272'> +3.0367792e+11 </wgt>
<wgt id='1273'> +2.9506582e+11 </wgt>
<wgt id='1274'> +2.9551231e+11 </wgt>
<wgt id='1275'> +2.8855595e+11 </wgt>
<wgt id='1276'> +3.2194633e+11 </wgt>
<wgt id='1277'> +3.2548050e+11 </wgt>
<wgt id='1278'> +3.1496864e+11 </wgt>
<wgt id='1279'> +2.7520402e+11 </wgt>
<wgt id='1280'> +3.0794369e+11 </wgt>
<wgt id='1281'> +2.8480147e+11 </wgt>
<wgt id='1282'> +2.9116454e+11 </wgt>
<wgt id='1283'> +3.3608002e+11 </wgt>
<wgt id='1284'> +2.9426532e+11 </wgt>
<wgt id='1285'> +2.9545591e+11 </wgt>
<wgt id='1286'> +3.6436909e+11 </wgt>
<wgt id='1287'> +3.6732780e+11 </wgt>
<wgt id='1288'> +3.8795137e+11 </wgt>
<wgt id='1289'> +3.3484153e+11 </wgt>
<wgt id='1290'> +3.1910961e+11 </wgt>
<wgt id='1291'> +2.8467555e+11 </wgt>
<wgt id='1292'> +3.1523729e+11 </wgt>
<wgt id='1293'> +3.0537663e+11 </wgt>
<wgt id='1294'> +3.6955687e+11 </wgt>
<wgt id='1295'> +3.2017825e+11 </wgt>
<wgt id='1296'> +3.7428273e+11 </wgt>
<wgt id='1297'> +2.7826153e+11 </wgt>
<wgt id='1298'> +2.9520414e+11 </wgt>
<wgt id='1299'> +3.1091532e+11 </wgt>
<wgt id='1300'> +2.5433622e+11 </wgt>
<wgt id='1301'> +2.7270620e+11 </wgt>
<wgt id='1302'> +2.7195255e+11 </wgt>
<wgt id='1303'> +3.1576666e+11 </wgt>
<wgt id='1304'> +3.6535723e+11 </wgt>
<wgt id='1305'> +2.9466810e+11 </wgt>
<wgt id='1306'> +3.0676723e+11 </wgt>
<wgt id='1307'> +2.6852522e+11 </wgt>
<wgt id='1308'> +3.4574362e+11 </wgt>
<wgt id='1309'> +3.1709369e+11 </wgt>
<wgt id='1310'> +3.0998911e+11 </wgt>
<wgt id='1311'> +2.8666711e+11 </wgt>
<wgt id='1312'> +3.5920149e+11 </wgt>
<wgt id='1313'> +3.2708845e+11 </wgt>
<wgt id='1314'> +2.7231976e+11 </wgt>
<wgt id='1315'> +2.8030368e+11 </wgt>
<wgt id='1316'> +3.0081298e+11 </wgt>
<wgt id='1317'> +3.5598109e+11 </wgt>
<wgt id='1318'> +2.9023286e+11 </wgt>
<wgt id='1319'> +3.0630535e+11 </wgt>
<wgt id='1320'> +3.3188916e+11 </wgt>
<wgt id='1321'> +3.2119529e+11 </wgt>
<wgt id='1322'> +3.3171597e+11 </wgt>
<wgt id='1323'> +2.6413157e+11 </wgt>
<wgt id='1324'> +3.3007250e+11 </wgt>
<wgt id='1325'> +3.2096172e+11 </wgt>
<wgt id='1326'> +3.2444530e+11 </wgt>
<wgt id='1327'> +3.3789043e+11 </wgt>
<wgt id='1328'> +3.2317151e+11 </wgt>
<wgt id='1329'> +2.8992447e+11 </wgt>
<wgt id='1330'> +2.7383300e+11 </wgt>
<wgt id='1331'> +3.3408777e+11 </wgt>
<wgt id='1332'> +3.2327609e+11 </wgt>
<wgt id='1333'> +3.0514844e+11 </wgt>
<wgt id='1334'> +3.4663465e+11 </wgt>
<wgt id='1335'> +2.7301399e+11 </wgt>
<wgt id='1336'> +3.5617251e+11 </wgt>
<wgt id='1337'> +3.1495349e+11 </wgt>
<wgt id='1338'> +2.7901837e+11 </wgt>
<wgt id='1339'> +2.9499189e+11 </wgt>
<wgt id='1340'> +3.4735417e+11 </wgt>
<wgt id='1341'> +3.8892760e+11 </wgt>
<wgt id='1342'> +2.8159696e+11 </wgt>
<wgt id='1343'> +3.1411669e+11 </wgt>
<wgt id='1344'> +3.3835398e+11 </wgt>
<wgt id='1345'> +2.2548142e+11 </wgt>
<wgt id='1346'> +3.0826467e+11 </wgt>
<wgt id='1347'> +3.0883703e+11 </wgt>
<wgt id='1348'> +2.8415663e+11 </wgt>
<wgt id='1349'> +2.9378212e+11 </wgt>
<wgt id='1350'> +3.5251846e+11 </wgt>
<wgt id='1351'> +2.8657097e+11 </wgt>
<wgt id='1352'> +3.1378925e+11 </wgt>
<wgt id='1353'> +3.1624886e+11 </wgt>
<wgt id='1354'> +3.2075463e+11 </wgt>
<wgt id='1355'> +2.8472244e+11 </wgt>
<wgt id='1356'> +2.8778022e+11 </wgt>
<wgt id='1357'> +2.8867202e+11 </wgt>
<wgt id='1358'> +2.8126226e+11 </wgt>
<wgt id='1359'> +2.8208852e+11 </wgt>
<wgt id='1360'> +2.7838361e+11 </wgt>
<wgt id='1361'> +2.8351969e+11 </wgt>
<wgt id='1362'> +2.9342315e+11 </wgt>
<wgt id='1363'> +2.8295371e+11 </wgt>
<wgt id='1364'> +3.0341825e+11 </wgt>
<wgt id='1365'> +2.8143655e+11 </wgt>
<wgt id='1366'> +2.8417375e+11 </wgt>
<wgt id='1367'> +2.7772141e+11 </wgt>
<wgt id='1368'> +2.9177166e+11 </wgt>
<wgt id='1369'> +2.8752938e+11 </wgt>
<wgt id='1370'> +2.7348892e+11 </wgt>
<wgt id='1371'> +2.7740958e+11 </wgt>
<wgt id='1372'> +2.7694202e+11 </wgt>
<wgt id='1373'> +2.9467700e+11 </wgt>
<wgt id='1374'> +2.8458744e+11 </wgt>
<wgt id='1375'> +2.8717373e+11 </wgt>
<wgt id='1376'> +2.8693133e+11 </wgt>
<wgt id='1377'> +2.8288543e+11 </wgt>
<wgt id='1378'> +2.9112279e+11 </wgt>
<wgt id='1379'> +2.8078148e+11 </wgt>
<wgt id='1380'> +2.8169487e+11 </wgt>
<wgt id='1381'> +2.8843368e+11 </wgt>
<wgt id='1382'> +2.7848406e+11 </wgt>
<wgt id='1383'> +2.8100473e+11 </wgt>
<wgt id='1384'> +2.7323922e+11 </wgt>
<wgt id='1385'> +2.7953096e+11 </wgt>
<wgt id='1386'> +2.8065151e+11 </wgt>
<wgt id='1387'> +2.8688349e+11 </wgt>
<wgt id='1388'> +2.8340493e+11 </wgt>
<wgt id='1389'> +2.7762898e+11 </wgt>
<wgt id='1390'> +2.8791887e+11 </wgt>
<wgt id='1391'> +2.9346476e+11 </wgt>
<wgt id='1392'> +2.7326113e+11 </wgt>
<wgt id='1393'> +2.9003916e+11 </wgt>
<wgt id='1394'> +2.8971834e+11 </wgt>
<wgt id='1395'> +2.7394611e+11 </wgt>
<wgt id='1396'> +2.8440319e+11 </wgt>
<wgt id='1397'> +2.8261235e+11 </wgt>
<wgt id='1398'> +2.9846490e+11 </wgt>
<wgt id='1399'> +2.8008887e+11 </wgt>
<wgt id='1400'> +2.7793036e+11 </wgt>
<wgt id='1401'> +2.7951903e+11 </wgt>
<wgt id='1402'> +2.8664905e+11 </wgt>
<wgt id='1403'> +2.9966166e+11 </wgt>
<wgt id='1404'> +2.8816539e+11 </wgt>
<wgt id='1405'> +3.0069128e+11 </wgt>
<wgt id='1406'> +2.9323451e+11 </wgt>
<wgt id='1407'> +2.9551754e+11 </wgt>
<wgt id='1408'> +3.0154531e+11 </wgt>
<wgt id='1409'> +2.7677630e+11 </wgt>
<wgt id='1410'> +2.8103010e+11 </wgt>
<wgt id='1411'> +2.8389945e+11 </wgt>
<wgt id='1412'> +2.9538806e+11 </wgt>
<wgt id='1413'> +2.9428410e+11 </wgt>
<wgt id='1414'> +2.8848572e+11 </wgt>
<wgt id='1415'> +2.7600424e+11 </wgt>
<wgt id='1416'> +2.8385587e+11 </wgt>
<wgt id='1417'> +2.7787321e+11 </wgt>
<wgt id='1418'> +2.8131916e+11 </wgt>
<wgt id='1419'> +2.8584164e+11 </wgt>
<wgt id='1420'> +2.6765884e+11 </wgt>
<wgt id='1421'> +2.9602146e+11 </wgt>
<wgt id='1422'> +2.7127195e+11 </wgt>
<wgt id='1423'> +2.8493411e+11 </wgt>
<wgt id='1424'> +2.7941636e+11 </wgt>
<wgt id='1425'> +2.8239609e+11 </wgt>
<wgt id='1426'> +2.9190106e+11 </wgt>
<wgt id='1427'> +2.7892917e+11 </wgt>
<wgt id='1428'> +2.7708778e+11 </wgt>
<wgt id='1429'> +2.8413301e+11 </wgt>
<wgt id='1430'> +2.7973153e+11 </wgt>
<wgt id='1431'> +2.8963873e+11 </wgt>
<wgt id='1432'> +2.7383037e+11 </wgt>
<wgt id='1433'> +2.7422313e+11 </wgt>
<wgt id='1434'> +2.8289109e+11 </wgt>
<wgt id='1435'> +2.8868968e+11 </wgt>
<wgt id='1436'> +2.8675339e+11 </wgt>
<wgt id='1437'> +2.8302058e+11 </wgt>
<wgt id='1438'> +2.8327291e+11 </wgt>
<wgt id='1439'> +2.9469179e+11 </wgt>
<wgt id='1440'> +2.8376142e+11 </wgt>
<wgt id='1441'> +2.8069152e+11 </wgt>
<wgt id='1442'> +2.8423361e+11 </wgt>
<wgt id='1443'> +2.7532480e+11 </wgt>
<wgt id='1444'> +2.9711259e+11 </wgt>
<wgt id='1445'> +2.7810431e+11 </wgt>
<wgt id='1446'> +3.0159540e+11 </wgt>
<wgt id='1447'> +2.9232088e+11 </wgt>
<wgt id='1448'> +2.8870925e+11 </wgt>
<wgt id='1449'> +2.8495768e+11 </wgt>
<wgt id='1450'> +2.8021208e+11 </wgt>
<wgt id='1451'> +2.7755662e+11 </wgt>
<wgt id='1452'> +2.9008635e+11 </wgt>
<wgt id='1453'> +2.9616370e+11 </wgt>
<wgt id='1454'> +2.7421542e+11 </wgt>
<wgt id='1455'> +2.8425093e+11 </wgt>
<wgt id='1456'> +2.8055655e+11 </wgt>
<wgt id='1457'> +2.8765129e+11 </wgt>
<wgt id='1458'> +2.9636385e+11 </wgt>
<wgt id='1459'> +3.1445915e+11 </wgt>
<wgt id='1460'> +3.0832049e+11 </wgt>
<wgt id='1461'> +3.8103575e+11 </wgt>
<wgt id='1462'> +3.1324294e+11 </wgt>
<wgt id='1463'> +3.1345186e+11 </wgt>
<wgt id='1464'> +3.1297498e+11 </wgt>
<wgt id='1465'> +3.1332009e+11 </wgt>
<wgt id='1466'> +3.1317248e+11 </wgt>
<wgt id='1467'> +3.1332045e+11 </wgt>
<wgt id='1468'> +3.1311576e+11 </wgt>
<wgt id='1469'> +3.1279704e+11 </wgt>
<wgt id='1470'> +3.1360504e+11 </wgt>
<wgt id='1471'> +3.1368894e+11 </wgt>
<wgt id='1472'> +3.1278355e+11 </wgt>
<wgt id='1473'> +3.1454313e+11 </wgt>
<wgt id='1474'> +3.1199400e+11 </wgt>
<wgt id='1475'> +3.1444202e+11 </wgt>
<wgt id='1476'> +3.1239327e+11 </wgt>
<wgt id='1477'> +3.1268253e+11 </wgt>
<wgt id='1478'> +3.1455265e+11 </wgt>
<wgt id='1479'> +3.1305103e+11 </wgt>
<wgt id='1480'> +3.1338584e+11 </wgt>
<wgt id='1481'> +3.1238662e+11 </wgt>
<wgt id='1482'> +3.1440622e+11 </wgt>
<wgt id='1483'> +3.1324416e+11 </wgt>
<wgt id='1484'> +3.1325197e+11 </wgt>
<wgt id='1485'> +3.1342016e+11 </wgt>
<wgt id='1486'> +3.1281528e+11 </wgt>
<wgt id='1487'> +3.1348510e+11 </wgt>
<wgt id='1488'> +3.1293282e+11 </wgt>
<wgt id='1489'> +3.1282853e+11 </wgt>
<wgt id='1490'> +3.1436735e+11 </wgt>
<wgt id='1491'> +3.1886361e+11 </wgt>
<wgt id='1492'> +3.1011336e+11 </wgt>
<wgt id='1493'> +3.0921881e+11 </wgt>
<wgt id='1494'> +3.2585997e+11 </wgt>
<wgt id='1495'> +3.1206554e+11 </wgt>
<wgt id='1496'> +3.1450960e+11 </wgt>
<wgt id='1497'> +3.1352793e+11 </wgt>
<wgt id='1498'> +3.1285532e+11 </wgt>
<wgt id='1499'> +3.1590760e+11 </wgt>
<wgt id='1500'> +3.1179271e+11 </wgt>
<wgt id='1501'> +3.1322242e+11 </wgt>
<wgt id='1502'> +3.1333634e+11 </wgt>
<wgt id='1503'> +3.0603970e+11 </wgt>
<wgt id='1504'> +3.2169881e+11 </wgt>
<wgt id='1505'> +3.1333241e+11 </wgt>
<wgt id='1506'> +3.1316117e+11 </wgt>
<wgt id='1507'> +3.2025788e+11 </wgt>
<wgt id='1508'> +2.9998691e+11 </wgt>
<wgt id='1509'> +3.1443081e+11 </wgt>
<wgt id='1510'> +3.0808988e+11 </wgt>
<wgt id='1511'> +3.1433901e+11 </wgt>
<wgt id='1512'> +3.1332061e+11 </wgt>
<wgt id='1513'> +3.1278093e+11 </wgt>
<wgt id='1514'> +3.1376738e+11 </wgt>
<wgt id='1515'> +3.2039504e+11 </wgt>
<wgt id='1516'> +3.1057308e+11 </wgt>
<wgt id='1517'> +3.1227183e+11 </wgt>
<wgt id='1518'> +3.1504712e+11 </wgt>
<wgt id='1519'> +3.1064607e+11 </wgt>
<wgt id='1520'> +3.1507495e+11 </wgt>
<wgt id='1521'> +3.1118662e+11 </wgt>
<wgt id='1522'> +3.1435941e+11 </wgt>
<wgt id='1523'> +3.1483427e+11 </wgt>
<wgt id='1524'> +3.1504716e+11 </wgt>
<wgt id='1525'> +3.1342353e+11 </wgt>
<wgt id='1526'> +3.1568996e+11 </wgt>
<wgt id='1527'> +3.1324294e+11 </wgt>
<wgt id='1528'> +3.0980971e+11 </wgt>
<wgt id='1529'> +3.1680672e+11 </wgt>
<wgt id='1530'> +3.0239995e+11 </wgt>
<wgt id='1531'> +3.2595506e+11 </wgt>
<wgt id='1532'> +3.2977479e+11 </wgt>
<wgt id='1533'> +3.1951363e+11 </wgt>
<wgt id='1534'> +3.2326523e+11 </wgt>
<wgt id='1535'> +3.3035161e+11 </wgt>
<wgt id='1536'> +3.1967958e+11 </wgt>
<wgt id='1537'> +3.3209838e+11 </wgt>
<wgt id='1538'> +3.2063535e+11 </wgt>
<wgt id='1539'> +3.3163316e+11 </wgt>
<wgt id='1540'> +3.3048805e+11 </wgt>
<wgt id='1541'> +3.2916889e+11 </wgt>
<wgt id='1542'> +3.2726995e+11 </wgt>
<wgt id='1543'> +3.2965275e+11 </wgt>
<wgt id='1544'> +3.2361910e+11 </wgt>
<wgt id='1545'> +3.2414418e+11 </wgt>
<wgt id='1546'> +3.2251589e+11 </wgt>
<wgt id='1547'> +3.2809977e+11 </wgt>
<wgt id='1548'> +3.2586089e+11 </wgt>
<wgt id='1549'> +3.2239030e+11 </wgt>
<wgt id='1550'> +3.2968967e+11 </wgt>
<wgt id='1551'> +3.2683414e+11 </wgt>
<wgt id='1552'> +3.2683356e+11 </wgt>
<wgt id='1553'> +3.3705463e+11 </wgt>
<wgt id='1554'> +3.2700419e+11 </wgt>
<wgt id='1555'> +3.2673957e+11 </wgt>
<wgt id='1556'> +3.2827785e+11 </wgt>
<wgt id='1557'> +3.2607877e+11 </wgt>
<wgt id='1558'> +3.2600670e+11 </wgt>
<wgt id='1559'> +3.2412682e+11 </wgt>
<wgt id='1560'> +3.2621670e+11 </wgt>
<wgt id='1561'> +3.2516652e+11 </wgt>
<wgt id='1562'> +3.2212489e+11 </wgt>
<wgt id='1563'> +3.2649571e+11 </wgt>
<wgt id='1564'> +3.2553271e+11 </wgt>
<wgt id='1565'> +3.3127184e+11 </wgt>
<wgt id='1566'> +3.2588969e+11 </wgt>
<wgt id='1567'> +3.2326113e+11 </wgt>
<wgt id='1568'> +3.2571546e+11 </wgt>
<wgt id='1569'> +3.2529857e+11 </wgt>
<wgt id='1570'> +3.3371879e+11 </wgt>
<wgt id='1571'> +3.2549483e+11 </wgt>
<wgt id='1572'> +3.2538946e+11 </wgt>
<wgt id='1573'> +3.3341091e+11 </wgt>
<wgt id='1574'> +2.3803953e+11 </wgt>
<wgt id='1575'> +2.3809850e+11 </wgt>
<wgt id='1576'> +2.3796977e+11 </wgt>
<wgt id='1577'> +2.3805675e+11 </wgt>
<wgt id='1578'> +2.3858809e+11 </wgt>
<wgt id='1579'> +2.3874173e+11 </wgt>
<wgt id='1580'> +2.3850199e+11 </wgt>
<wgt id='1581'> +2.3777347e+11 </wgt>
<wgt id='1582'> +2.3755159e+11 </wgt>
<wgt id='1583'> +2.3753211e+11 </wgt>
<wgt id='1584'> +2.3859328e+11 </wgt>
<wgt id='1585'> +2.3841139e+11 </wgt>
<wgt id='1586'> +2.3752087e+11 </wgt>
<wgt id='1587'> +2.3755349e+11 </wgt>
<wgt id='1588'> +2.3718133e+11 </wgt>
<wgt id='1589'> +2.3761477e+11 </wgt>
<wgt id='1590'> +2.3789738e+11 </wgt>
<wgt id='1591'> +2.3811885e+11 </wgt>
<wgt id='1592'> +2.3716471e+11 </wgt>
<wgt id='1593'> +2.3674382e+11 </wgt>
<wgt id='1594'> +2.3935768e+11 </wgt>
<wgt id='1595'> +2.3526890e+11 </wgt>
<wgt id='1596'> +2.4287718e+11 </wgt>
<wgt id='1597'> +2.3983144e+11 </wgt>
<wgt id='1598'> +2.3981453e+11 </wgt>
<wgt id='1599'> +2.3481680e+11 </wgt>
<wgt id='1600'> +2.4331601e+11 </wgt>
<wgt id='1601'> +2.4016919e+11 </wgt>
<wgt id='1602'> +2.3827682e+11 </wgt>
<wgt id='1603'> +2.5560266e+11 </wgt>
<wgt id='1604'> +2.3784783e+11 </wgt>
</rwgt>
</event>
<event>
 9      1 +2.8343000e+11 1.40000000e+03 7.81738600e-03 7.88881100e-02
       21 -1    0    0  504  503 +0.0000000000e+00 +0.0000000000e+00 +6.3778060977e+02 6.3778060977e+02 0.0000000000e+00 0.0000e+00 1.0000e+00
       21 -1    0    0  503  504 -0.0000000000e+00 -0.0000000000e+00 -7.6828944694e+02 7.6828944694e+02 0.0000000000e+00 0.0000e+00 1.0000e+00
       45  2    1    2    0    0 +0.0000000000e+00 +0.0000000000e+00 -1.3050883718e+02 1.4060700567e+03 1.4000001599e+03 0.0000e+00 0.0000e+00
       25  2    3    3    0    0 -5.3574957972e+02 +4.3694550450e+02 -7.9591618552e+01 7.0704100753e+02 1.2499269781e+02 0.0000e+00 0.0000e+00
       35  2    3    3    0    0 +5.3574957972e+02 -4.3694550450e+02 -5.0917218627e+01 6.9902904918e+02 9.0000346543e+01 0.0000e+00 0.0000e+00
        5  1    5    5  501    0 +2.3003677415e+02 -1.6788131722e+02 -6.2491594671e+01 2.9158877093e+02 4.2140000000e+00 0.0000e+00 -1.0000e+00
       -5  1    5    5    0  501 +3.0571280557e+02 -2.6906418728e+02 +1.1574376044e+01 4.0744027825e+02 4.2140000000e+00 0.0000e+00 -1.0000e+00
        5  1    4    4  502    0 -5.0622963219e+01 +6.7300381149e+01 +2.5590812730e+01 8.8117383076e+01 4.2140000000e+00 0.0000e+00 1.0000e+00
       -5  1    4    4    0  502 -4.8512661650e+02 +3.6964512335e+02 -1.0518243128e+02 6.1892362445e+02 4.2140000000e+00 0.0000e+00 1.0000e+00
<mgrwt>
<rscale>  0 0.14000002E+04</rscale>
<asrwt>0</asrwt>
<pdfrwt beam="1">  1       21 0.98120094E-01 0.14000002E+04</pdfrwt>
<pdfrwt beam="2">  1       21 0.11819838E+00 0.14000002E+04</pdfrwt>
<totfact> 0.35623302E+02</totfact>
</mgrwt>
<rwgt>
<wgt id='1001'> +2.8343000e+11 </wgt>
<wgt id='1002'> +2.8387205e+11 </wgt>
<wgt id='1003'> +2.8387170e+11 </wgt>
<wgt id='1004'> +3.1822632e+11 </wgt>
<wgt id='1005'> +2.8343000e+11 </wgt>
<wgt id='1006'> +2.8343000e+11 </wgt>
<wgt id='1007'> +2.8387205e+11 </wgt>
<wgt id='1008'> +2.8387170e+11 </wgt>
<wgt id='1009'> +3.1822632e+11 </wgt>
<wgt id='1010'> +2.8343000e+11 </wgt>
<wgt id='1011'> +2.8343000e+11 </wgt>
<wgt id='1012'> +2.8387205e+11 </wgt>
<wgt id='1013'> +2.8387170e+11 </wgt>
<wgt id='1014'> +3.1822632e+11 </wgt>
<wgt id='1015'> +2.8343000e+11 </wgt>
<wgt id='1016'> +2.5467675e+11 </wgt>
<wgt id='1017'> +2.5505147e+11 </wgt>
<wgt id='1018'> +2.5505117e+11 </wgt>
<wgt id='1019'> +2.8387170e+11 </wgt>
<wgt id='1020'> +2.5467675e+11 </wgt>
<wgt id='1021'> +2.5467675e+11 </wgt>
<wgt id='1022'> +2.5505147e+11 </wgt>
<wgt id='1023'> +2.5505117e+11 </wgt>
<wgt id='1024'> +2.8387170e+11 </wgt>
<wgt id='1025'> +2.5467675e+11 </wgt>
<wgt id='1026'> +2.5467675e+11 </wgt>
<wgt id='1027'> +2.5505147e+11 </wgt>
<wgt id='1028'> +2.5505117e+11 </wgt>
<wgt id='1029'> +2.8387170e+11 </wgt>
<wgt id='1030'> +2.5467675e+11 </wgt>
<wgt id='1031'> +3.1769639e+11 </wgt>
<wgt id='1032'> +3.1822674e+11 </wgt>
<wgt id='1033'> +3.1822632e+11 </wgt>
<wgt id='1034'> +3.5951700e+11 </wgt>
<wgt id='1035'> +3.1769639e+11 </wgt>
<wgt id='1036'> +3.1769639e+11 </wgt>
<wgt id='1037'> +3.1822674e+11 </wgt>
<wgt id='1038'> +3.1822632e+11 </wgt>
<wgt id='1039'> +3.5951700e+11 </wgt>
<wgt id='1040'> +3.1769639e+11 </wgt>
<wgt id='1041'> +3.1769639e+11 </wgt>
<wgt id='1042'> +3.1822674e+11 </wgt>
<wgt id='1043'> +3.1822632e+11 </wgt>
<wgt id='1044'> +3.5951700e+11 </wgt>
<wgt id='1045'> +3.1769639e+11 </wgt>
<wgt id='1046'> +2.8343000e+11 </wgt>
<wgt id='1047'> +2.8343000e+11 </wgt>
<wgt id='1048'> +2.8343000e+11 </wgt>
<wgt id='1049'> +2.8228644e+11 </wgt>
<wgt id='1050'> +2.8305760e+11 </wgt>
<wgt id='1051'> +2.8373248e+11 </wgt>
<wgt id='1052'> +2.8421297e+11 </wgt>
<wgt id='1053'> +2.8188786e+11 </wgt>
<wgt id='1054'> +2.8387742e+11 </wgt>
<wgt id='1055'> +2.8225093e+11 </wgt>
<wgt id='1056'> +2.8182470e+11 </wgt>
<wgt id='1057'> +2.8419538e+11 </wgt>
<wgt id='1058'> +2.8304881e+11 </wgt>
<wgt id='1059'> +2.8540784e+11 </wgt>
<wgt id='1060'> +2.8366014e+11 </wgt>
<wgt id='1061'> +2.8419652e+11 </wgt>
<wgt id='1062'> +2.8401862e+11 </wgt>
<wgt id='1063'> +2.8367919e+11 </wgt>
<wgt id='1064'> +2.8467420e+11 </wgt>
<wgt id='1065'> +2.8486535e+11 </wgt>
<wgt id='1066'> +2.8196199e+11 </wgt>
<wgt id='1067'> +2.7975317e+11 </wgt>
<wgt id='1068'> +2.8379193e+11 </wgt>
<wgt id='1069'> +2.8277020e+11 </wgt>
<wgt id='1070'> +2.8344359e+11 </wgt>
<wgt id='1071'> +2.8485351e+11 </wgt>
<wgt id='1072'> +2.8113968e+11 </wgt>
<wgt id='1073'> +2.8410372e+11 </wgt>
<wgt id='1074'> +2.8307308e+11 </wgt>
<wgt id='1075'> +2.8441601e+11 </wgt>
<wgt id='1076'> +2.8317267e+11 </wgt>
<wgt id='1077'> +2.8293018e+11 </wgt>
<wgt id='1078'> +2.8410024e+11 </wgt>
<wgt id='1079'> +2.8180017e+11 </wgt>
<wgt id='1080'> +2.8278803e+11 </wgt>
<wgt id='1081'> +2.8301692e+11 </wgt>
<wgt id='1082'> +2.8204875e+11 </wgt>
<wgt id='1083'> +2.8399155e+11 </wgt>
<wgt id='1084'> +2.8406927e+11 </wgt>
<wgt id='1085'> +2.8285297e+11 </wgt>
<wgt id='1086'> +2.8281353e+11 </wgt>
<wgt id='1087'> +2.8308261e+11 </wgt>
<wgt id='1088'> +2.8293985e+11 </wgt>
<wgt id='1089'> +2.8279831e+11 </wgt>
<wgt id='1090'> +2.8413497e+11 </wgt>
<wgt id='1091'> +2.8349370e+11 </wgt>
<wgt id='1092'> +2.8369488e+11 </wgt>
<wgt id='1093'> +2.8332424e+11 </wgt>
<wgt id='1094'> +2.8290223e+11 </wgt>
<wgt id='1095'> +2.8354712e+11 </wgt>
<wgt id='1096'> +2.8337939e+11 </wgt>
<wgt id='1097'> +2.8303451e+11 </wgt>
<wgt id='1098'> +2.8307679e+11 </wgt>
<wgt id='1099'> +2.8322772e+11 </wgt>
<wgt id='1100'> +2.8401908e+11 </wgt>
<wgt id='1101'> +2.8340992e+11 </wgt>
<wgt id='1102'> +2.8328384e+11 </wgt>
<wgt id='1103'> +2.8310436e+11 </wgt>
<wgt id='1104'> +2.8310384e+11 </wgt>
<wgt id='1105'> +2.8353894e+11 </wgt>
<wgt id='1106'> +2.8376286e+11 </wgt>
<wgt id='1107'> +2.8333761e+11 </wgt>
<wgt id='1108'> +2.8333759e+11 </wgt>
<wgt id='1109'> +2.8323782e+11 </wgt>
<wgt id='1110'> +2.8376048e+11 </wgt>
<wgt id='1111'> +2.8356036e+11 </wgt>
<wgt id='1112'> +2.8339762e+11 </wgt>
<wgt id='1113'> +2.8373891e+11 </wgt>
<wgt id='1114'> +2.8311198e+11 </wgt>
<wgt id='1115'> +2.8325444e+11 </wgt>
<wgt id='1116'> +2.8373748e+11 </wgt>
<wgt id='1117'> +2.8337273e+11 </wgt>
<wgt id='1118'> +2.8353287e+11 </wgt>
<wgt id='1119'> +2.8325362e+11 </wgt>
<wgt id='1120'> +2.8328448e+11 </wgt>
<wgt id='1121'> +2.8349602e+11 </wgt>
<wgt id='1122'> +2.8322727e+11 </wgt>
<wgt id='1123'> +2.8337372e+11 </wgt>
<wgt id='1124'> +2.8333990e+11 </wgt>
<wgt id='1125'> +2.8358986e+11 </wgt>
<wgt id='1126'> +2.8353589e+11 </wgt>
<wgt id='1127'> +2.8332206e+11 </wgt>
<wgt id='1128'> +2.8347241e+11 </wgt>
<wgt id='1129'> +2.8338888e+11 </wgt>
<wgt id='1130'> +2.8346414e+11 </wgt>
<wgt id='1131'> +2.8369738e+11 </wgt>
<wgt id='1132'> +2.8335216e+11 </wgt>
<wgt id='1133'> +2.8350648e+11 </wgt>
<wgt id='1134'> +2.8341023e+11 </wgt>
<wgt id='1135'> +2.8346870e+11 </wgt>
<wgt id='1136'> +2.8339845e+11 </wgt>
<wgt id='1137'> +2.8328690e+11 </wgt>
<wgt id='1138'> +2.8354317e+11 </wgt>
<wgt id='1139'> +2.8346805e+11 </wgt>
<wgt id='1140'> +2.8364202e+11 </wgt>
<wgt id='1141'> +2.8330402e+11 </wgt>
<wgt id='1142'> +2.8349999e+11 </wgt>
<wgt id='1143'> +2.8359447e+11 </wgt>
<wgt id='1144'> +2.8334494e+11 </wgt>
<wgt id='1145'> +2.8355354e+11 </wgt>
<wgt id='1146'> +2.8341078e+11 </wgt>
<wgt id='1147'> +2.8347495e+11 </wgt>
<wgt id='1148'> +2.8343000e+11 </wgt>
<wgt id='1149'> +2.8343000e+11 </wgt>
<wgt id='1150'> +2.9131164e+11 </wgt>
<wgt id='1151'> +2.8115481e+11 </wgt>
<wgt id='1152'> +2.8529868e+11 </wgt>
<wgt id='1153'> +2.8768882e+11 </wgt>
<wgt id='1154'> +2.8737158e+11 </wgt>
<wgt id='1155'> +2.8845618e+11 </wgt>
<wgt id='1156'> +2.7655384e+11 </wgt>
<wgt id='1157'> +2.7660922e+11 </wgt>
<wgt id='1158'> +2.7763706e+11 </wgt>
<wgt id='1159'> +2.9627530e+11 </wgt>
<wgt id='1160'> +2.8163519e+11 </wgt>
<wgt id='1161'> +2.8553687e+11 </wgt>
<wgt id='1162'> +2.7643743e+11 </wgt>
<wgt id='1163'> +2.8683494e+11 </wgt>
<wgt id='1164'> +2.6763213e+11 </wgt>
<wgt id='1165'> +2.7931015e+11 </wgt>
<wgt id='1166'> +2.8499452e+11 </wgt>
<wgt id='1167'> +2.7990256e+11 </wgt>
<wgt id='1168'> +2.7652169e+11 </wgt>
<wgt id='1169'> +2.7596122e+11 </wgt>
<wgt id='1170'> +2.7611925e+11 </wgt>
<wgt id='1171'> +2.7346104e+11 </wgt>
<wgt id='1172'> +2.7752351e+11 </wgt>
<wgt id='1173'> +2.8795397e+11 </wgt>
<wgt id='1174'> +2.7963171e+11 </wgt>
<wgt id='1175'> +2.7526870e+11 </wgt>
<wgt id='1176'> +2.8638199e+11 </wgt>
<wgt id='1177'> +2.7924326e+11 </wgt>
<wgt id='1178'> +2.8314986e+11 </wgt>
<wgt id='1179'> +2.8028400e+11 </wgt>
<wgt id='1180'> +2.8391144e+11 </wgt>
<wgt id='1181'> +2.7651606e+11 </wgt>
<wgt id='1182'> +2.8161417e+11 </wgt>
<wgt id='1183'> +2.9567562e+11 </wgt>
<wgt id='1184'> +2.7640041e+11 </wgt>
<wgt id='1185'> +2.8083015e+11 </wgt>
<wgt id='1186'> +2.7174969e+11 </wgt>
<wgt id='1187'> +2.8571386e+11 </wgt>
<wgt id='1188'> +2.7730745e+11 </wgt>
<wgt id='1189'> +2.8556214e+11 </wgt>
<wgt id='1190'> +2.8419687e+11 </wgt>
<wgt id='1191'> +2.9514744e+11 </wgt>
<wgt id='1192'> +2.9181459e+11 </wgt>
<wgt id='1193'> +2.9532989e+11 </wgt>
<wgt id='1194'> +2.8459296e+11 </wgt>
<wgt id='1195'> +2.8376697e+11 </wgt>
<wgt id='1196'> +2.9235702e+11 </wgt>
<wgt id='1197'> +2.9403336e+11 </wgt>
<wgt id='1198'> +2.7543787e+11 </wgt>
<wgt id='1199'> +2.8205779e+11 </wgt>
<wgt id='1200'> +2.8234706e+11 </wgt>
<wgt id='1201'> +2.7934804e+11 </wgt>
<wgt id='1202'> +2.8864397e+11 </wgt>
<wgt id='1203'> +2.7765055e+11 </wgt>
<wgt id='1204'> +2.8827192e+11 </wgt>
<wgt id='1205'> +2.8509106e+11 </wgt>
<wgt id='1206'> +2.7651770e+11 </wgt>
<wgt id='1207'> +2.9311590e+11 </wgt>
<wgt id='1208'> +2.7282686e+11 </wgt>
<wgt id='1209'> +2.7869802e+11 </wgt>
<wgt id='1210'> +2.8037698e+11 </wgt>
<wgt id='1211'> +2.8573882e+11 </wgt>
<wgt id='1212'> +2.8366308e+11 </wgt>
<wgt id='1213'> +2.9339699e+11 </wgt>
<wgt id='1214'> +2.7572469e+11 </wgt>
<wgt id='1215'> +2.9196421e+11 </wgt>
<wgt id='1216'> +2.8601968e+11 </wgt>
<wgt id='1217'> +2.7592943e+11 </wgt>
<wgt id='1218'> +2.8478054e+11 </wgt>
<wgt id='1219'> +2.9440434e+11 </wgt>
<wgt id='1220'> +2.7709719e+11 </wgt>
<wgt id='1221'> +2.7505498e+11 </wgt>
<wgt id='1222'> +2.8038213e+11 </wgt>
<wgt id='1223'> +2.7260630e+11 </wgt>
<wgt id='1224'> +2.8352226e+11 </wgt>
<wgt id='1225'> +2.8811442e+11 </wgt>
<wgt id='1226'> +2.9063482e+11 </wgt>
<wgt id='1227'> +2.7309865e+11 </wgt>
<wgt id='1228'> +2.8138601e+11 </wgt>
<wgt id='1229'> +3.0282524e+11 </wgt>
<wgt id='1230'> +2.9413092e+11 </wgt>
<wgt id='1231'> +2.7931015e+11 </wgt>
<wgt id='1232'> +2.8911263e+11 </wgt>
<wgt id='1233'> +2.7814287e+11 </wgt>
<wgt id='1234'> +2.7636022e+11 </wgt>
<wgt id='1235'> +3.0300003e+11 </wgt>
<wgt id='1236'> +2.7660133e+11 </wgt>
<wgt id='1237'> +2.8982601e+11 </wgt>
<wgt id='1238'> +2.8960868e+11 </wgt>
<wgt id='1239'> +2.9201274e+11 </wgt>
<wgt id='1240'> +2.8546948e+11 </wgt>
<wgt id='1241'> +2.8202483e+11 </wgt>
<wgt id='1242'> +2.8074389e+11 </wgt>
<wgt id='1243'> +2.8893805e+11 </wgt>
<wgt id='1244'> +2.8125144e+11 </wgt>
<wgt id='1245'> +2.8180368e+11 </wgt>
<wgt id='1246'> +3.0721795e+11 </wgt>
<wgt id='1247'> +2.8369589e+11 </wgt>
<wgt id='1248'> +2.7534580e+11 </wgt>
<wgt id='1249'> +2.7763873e+11 </wgt>
<wgt id='1250'> +2.9213083e+11 </wgt>
<wgt id='1251'> +2.9875691e+11 </wgt>
<wgt id='1252'> +2.8721730e+11 </wgt>
<wgt id='1253'> +2.8531347e+11 </wgt>
<wgt id='1254'> +2.8867427e+11 </wgt>
<wgt id='1255'> +2.9807716e+11 </wgt>
<wgt id='1256'> +2.9541626e+11 </wgt>
<wgt id='1257'> +2.8573976e+11 </wgt>
<wgt id='1258'> +3.0022023e+11 </wgt>
<wgt id='1259'> +2.9479120e+11 </wgt>
<wgt id='1260'> +3.2551392e+11 </wgt>
<wgt id='1261'> +3.1380049e+11 </wgt>
<wgt id='1262'> +2.8969742e+11 </wgt>
<wgt id='1263'> +2.9676881e+11 </wgt>
<wgt id='1264'> +2.9860567e+11 </wgt>
<wgt id='1265'> +2.9871508e+11 </wgt>
<wgt id='1266'> +2.9442954e+11 </wgt>
<wgt id='1267'> +3.1569025e+11 </wgt>
<wgt id='1268'> +2.9421453e+11 </wgt>
<wgt id='1269'> +2.8723539e+11 </wgt>
<wgt id='1270'> +2.9148507e+11 </wgt>
<wgt id='1271'> +2.7935858e+11 </wgt>
<wgt id='1272'> +2.9336860e+11 </wgt>
<wgt id='1273'> +2.9191798e+11 </wgt>
<wgt id='1274'> +2.8765903e+11 </wgt>
<wgt id='1275'> +2.9852725e+11 </wgt>
<wgt id='1276'> +2.9554884e+11 </wgt>
<wgt id='1277'> +2.9091780e+11 </wgt>
<wgt id='1278'> +2.8667533e+11 </wgt>
<wgt id='1279'> +2.8122678e+11 </wgt>
<wgt id='1280'> +2.9382239e+11 </wgt>
<wgt id='1281'> +2.8585051e+11 </wgt>
<wgt id='1282'> +2.9664851e+11 </wgt>
<wgt id='1283'> +2.9629105e+11 </wgt>
<wgt id='1284'> +3.1480076e+11 </wgt>
<wgt id='1285'> +3.0823329e+11 </wgt>
<wgt id='1286'> +3.2871788e+11 </wgt>
<wgt id='1287'> +3.0330377e+11 </wgt>
<wgt id='1288'> +3.2367092e+11 </wgt>
<wgt id='1289'> +3.1301991e+11 </wgt>
<wgt id='1290'> +3.1143917e+11 </wgt>
<wgt id='1291'> +2.7794569e+11 </wgt>
<wgt id='1292'> +2.9746582e+11 </wgt>
<wgt id='1293'> +3.0021209e+11 </wgt>
<wgt id='1294'> +3.1444791e+11 </wgt>
<wgt id='1295'> +2.9832260e+11 </wgt>
<wgt id='1296'> +3.1545299e+11 </wgt>
<wgt id='1297'> +2.9553086e+11 </wgt>
<wgt id='1298'> +2.8778700e+11 </wgt>
<wgt id='1299'> +2.9862867e+11 </wgt>
<wgt id='1300'> +2.8805899e+11 </wgt>
<wgt id='1301'> +2.8094081e+11 </wgt>
<wgt id='1302'> +2.7583332e+11 </wgt>
<wgt id='1303'> +2.9843701e+11 </wgt>
<wgt id='1304'> +3.0612985e+11 </wgt>
<wgt id='1305'> +2.9835590e+11 </wgt>
<wgt id='1306'> +3.0523117e+11 </wgt>
<wgt id='1307'> +3.0366670e+11 </wgt>
<wgt id='1308'> +3.2536638e+11 </wgt>
<wgt id='1309'> +2.9585206e+11 </wgt>
<wgt id='1310'> +3.0222359e+11 </wgt>
<wgt id='1311'> +3.0797084e+11 </wgt>
<wgt id='1312'> +2.9917713e+11 </wgt>
<wgt id='1313'> +2.9691464e+11 </wgt>
<wgt id='1314'> +3.0417151e+11 </wgt>
<wgt id='1315'> +2.8493879e+11 </wgt>
<wgt id='1316'> +2.9855045e+11 </wgt>
<wgt id='1317'> +3.0136841e+11 </wgt>
<wgt id='1318'> +2.8643073e+11 </wgt>
<wgt id='1319'> +3.0770371e+11 </wgt>
<wgt id='1320'> +3.0908331e+11 </wgt>
<wgt id='1321'> +2.9376461e+11 </wgt>
<wgt id='1322'> +2.9784338e+11 </wgt>
<wgt id='1323'> +2.9862955e+11 </wgt>
<wgt id='1324'> +3.0129421e+11 </wgt>
<wgt id='1325'> +3.1094630e+11 </wgt>
<wgt id='1326'> +3.0288895e+11 </wgt>
<wgt id='1327'> +2.9356353e+11 </wgt>
<wgt id='1328'> +3.0260939e+11 </wgt>
<wgt id='1329'> +2.9777416e+11 </wgt>
<wgt id='1330'> +2.9072637e+11 </wgt>
<wgt id='1331'> +3.1925344e+11 </wgt>
<wgt id='1332'> +2.8607443e+11 </wgt>
<wgt id='1333'> +3.0057125e+11 </wgt>
<wgt id='1334'> +3.1389465e+11 </wgt>
<wgt id='1335'> +2.9254175e+11 </wgt>
<wgt id='1336'> +3.0234536e+11 </wgt>
<wgt id='1337'> +3.0849149e+11 </wgt>
<wgt id='1338'> +2.8984700e+11 </wgt>
<wgt id='1339'> +3.2033656e+11 </wgt>
<wgt id='1340'> +3.0165720e+11 </wgt>
<wgt id='1341'> +3.0489149e+11 </wgt>
<wgt id='1342'> +3.1558620e+11 </wgt>
<wgt id='1343'> +3.1028619e+11 </wgt>
<wgt id='1344'> +3.0346238e+11 </wgt>
<wgt id='1345'> +2.8003488e+11 </wgt>
<wgt id='1346'> +2.9952177e+11 </wgt>
<wgt id='1347'> +2.8682807e+11 </wgt>
<wgt id='1348'> +2.8804319e+11 </wgt>
<wgt id='1349'> +2.8984131e+11 </wgt>
<wgt id='1350'> +3.0048384e+11 </wgt>
<wgt id='1351'> +2.9678324e+11 </wgt>
<wgt id='1352'> +3.0049893e+11 </wgt>
<wgt id='1353'> +2.9717985e+11 </wgt>
<wgt id='1354'> +3.0692515e+11 </wgt>
<wgt id='1355'> +2.7546564e+11 </wgt>
<wgt id='1356'> +2.7821907e+11 </wgt>
<wgt id='1357'> +2.7634999e+11 </wgt>
<wgt id='1358'> +2.7288108e+11 </wgt>
<wgt id='1359'> +2.7622547e+11 </wgt>
<wgt id='1360'> +2.6868617e+11 </wgt>
<wgt id='1361'> +2.7550568e+11 </wgt>
<wgt id='1362'> +2.7731381e+11 </wgt>
<wgt id='1363'> +2.6933401e+11 </wgt>
<wgt id='1364'> +2.8172587e+11 </wgt>
<wgt id='1365'> +2.7313706e+11 </wgt>
<wgt id='1366'> +2.7559570e+11 </wgt>
<wgt id='1367'> +2.7631844e+11 </wgt>
<wgt id='1368'> +2.7550383e+11 </wgt>
<wgt id='1369'> +2.7975981e+11 </wgt>
<wgt id='1370'> +2.7359470e+11 </wgt>
<wgt id='1371'> +2.7315411e+11 </wgt>
<wgt id='1372'> +2.7997641e+11 </wgt>
<wgt id='1373'> +2.7910996e+11 </wgt>
<wgt id='1374'> +2.6736628e+11 </wgt>
<wgt id='1375'> +2.7436184e+11 </wgt>
<wgt id='1376'> +2.7636013e+11 </wgt>
<wgt id='1377'> +2.7538879e+11 </wgt>
<wgt id='1378'> +2.7126845e+11 </wgt>
<wgt id='1379'> +2.7393392e+11 </wgt>
<wgt id='1380'> +2.7388436e+11 </wgt>
<wgt id='1381'> +2.8078200e+11 </wgt>
<wgt id='1382'> +2.7509652e+11 </wgt>
<wgt id='1383'> +2.7543033e+11 </wgt>
<wgt id='1384'> +2.7382803e+11 </wgt>
<wgt id='1385'> +2.7400546e+11 </wgt>
<wgt id='1386'> +2.7742166e+11 </wgt>
<wgt id='1387'> +2.7446722e+11 </wgt>
<wgt id='1388'> +2.7176125e+11 </wgt>
<wgt id='1389'> +2.7377082e+11 </wgt>
<wgt id='1390'> +2.7440928e+11 </wgt>
<wgt id='1391'> +2.7320440e+11 </wgt>
<wgt id='1392'> +2.7330833e+11 </wgt>
<wgt id='1393'> +2.7344937e+11 </wgt>
<wgt id='1394'> +2.7316764e+11 </wgt>
<wgt id='1395'> +2.7121472e+11 </wgt>
<wgt id='1396'> +2.7650559e+11 </wgt>
<wgt id='1397'> +2.7606950e+11 </wgt>
<wgt id='1398'> +2.7608562e+11 </wgt>
<wgt id='1399'> +2.7107643e+11 </wgt>
<wgt id='1400'> +2.7252620e+11 </wgt>
<wgt id='1401'> +2.7397417e+11 </wgt>
<wgt id='1402'> +2.7871991e+11 </wgt>
<wgt id='1403'> +2.7856415e+11 </wgt>
<wgt id='1404'> +2.7326434e+11 </wgt>
<wgt id='1405'> +2.8157807e+11 </wgt>
<wgt id='1406'> +2.7520965e+11 </wgt>
<wgt id='1407'> +2.7617019e+11 </wgt>
<wgt id='1408'> +2.7863570e+11 </wgt>
<wgt id='1409'> +2.7338072e+11 </wgt>
<wgt id='1410'> +2.7316138e+11 </wgt>
<wgt id='1411'> +2.7514840e+11 </wgt>
<wgt id='1412'> +2.7435045e+11 </wgt>
<wgt id='1413'> +2.7237675e+11 </wgt>
<wgt id='1414'> +2.7717657e+11 </wgt>
<wgt id='1415'> +2.8126529e+11 </wgt>
<wgt id='1416'> +2.7861003e+11 </wgt>
<wgt id='1417'> +2.6875996e+11 </wgt>
<wgt id='1418'> +2.7713629e+11 </wgt>
<wgt id='1419'> +2.7900223e+11 </wgt>
<wgt id='1420'> +2.7470178e+11 </wgt>
<wgt id='1421'> +2.8151873e+11 </wgt>
<wgt id='1422'> +2.6788434e+11 </wgt>
<wgt id='1423'> +2.8071309e+11 </wgt>
<wgt id='1424'> +2.7648425e+11 </wgt>
<wgt id='1425'> +2.7567804e+11 </wgt>
<wgt id='1426'> +2.7902097e+11 </wgt>
<wgt id='1427'> +2.7542937e+11 </wgt>
<wgt id='1428'> +2.7531950e+11 </wgt>
<wgt id='1429'> +2.7130956e+11 </wgt>
<wgt id='1430'> +2.7072281e+11 </wgt>
<wgt id='1431'> +2.7076724e+11 </wgt>
<wgt id='1432'> +2.7740315e+11 </wgt>
<wgt id='1433'> +2.7611788e+11 </wgt>
<wgt id='1434'> +2.8215285e+11 </wgt>
<wgt id='1435'> +2.7460093e+11 </wgt>
<wgt id='1436'> +2.7962954e+11 </wgt>
<wgt id='1437'> +2.7816959e+11 </wgt>
<wgt id='1438'> +2.7349936e+11 </wgt>
<wgt id='1439'> +2.7617231e+11 </wgt>
<wgt id='1440'> +2.8006991e+11 </wgt>
<wgt id='1441'> +2.7538361e+11 </wgt>
<wgt id='1442'> +2.8312186e+11 </wgt>
<wgt id='1443'> +2.7364222e+11 </wgt>
<wgt id='1444'> +2.7376919e+11 </wgt>
<wgt id='1445'> +2.7844023e+11 </wgt>
<wgt id='1446'> +2.7768451e+11 </wgt>
<wgt id='1447'> +2.7146166e+11 </wgt>
<wgt id='1448'> +2.7782314e+11 </wgt>
<wgt id='1449'> +2.7680813e+11 </wgt>
<wgt id='1450'> +2.7358083e+11 </wgt>
<wgt id='1451'> +2.7671267e+11 </wgt>
<wgt id='1452'> +2.7865675e+11 </wgt>
<wgt id='1453'> +2.8051928e+11 </wgt>
<wgt id='1454'> +2.6884404e+11 </wgt>
<wgt id='1455'> +2.7470720e+11 </wgt>
<wgt id='1456'> +2.7470337e+11 </wgt>
<wgt id='1457'> +2.7424233e+11 </wgt>
<wgt id='1458'> +2.7734620e+11 </wgt>
<wgt id='1459'> +3.0478209e+11 </wgt>
<wgt id='1460'> +3.0010942e+11 </wgt>
<wgt id='1461'> +3.4716702e+11 </wgt>
<wgt id='1462'> +2.9959408e+11 </wgt>
<wgt id='1463'> +2.9984418e+11 </wgt>
<wgt id='1464'> +2.9927334e+11 </wgt>
<wgt id='1465'> +2.9965546e+11 </wgt>
<wgt id='1466'> +2.9953802e+11 </wgt>
<wgt id='1467'> +2.9975745e+11 </wgt>
<wgt id='1468'> +2.9932605e+11 </wgt>
<wgt id='1469'> +2.9914344e+11 </wgt>
<wgt id='1470'> +2.9996010e+11 </wgt>
<wgt id='1471'> +3.0007281e+11 </wgt>
<wgt id='1472'> +2.9910101e+11 </wgt>
<wgt id='1473'> +3.0074426e+11 </wgt>
<wgt id='1474'> +2.9848935e+11 </wgt>
<wgt id='1475'> +3.0069192e+11 </wgt>
<wgt id='1476'> +2.9881572e+11 </wgt>
<wgt id='1477'> +2.9902042e+11 </wgt>
<wgt id='1478'> +3.0093410e+11 </wgt>
<wgt id='1479'> +2.9901681e+11 </wgt>
<wgt id='1480'> +2.9999703e+11 </wgt>
<wgt id='1481'> +2.9917400e+11 </wgt>
<wgt id='1482'> +3.0016053e+11 </wgt>
<wgt id='1483'> +2.9969237e+11 </wgt>
<wgt id='1484'> +2.9945448e+11 </wgt>
<wgt id='1485'> +2.9979513e+11 </wgt>
<wgt id='1486'> +2.9910992e+11 </wgt>
<wgt id='1487'> +2.9984264e+11 </wgt>
<wgt id='1488'> +2.9928142e+11 </wgt>
<wgt id='1489'> +2.9924296e+11 </wgt>
<wgt id='1490'> +3.0054594e+11 </wgt>
<wgt id='1491'> +3.0451334e+11 </wgt>
<wgt id='1492'> +2.9684831e+11 </wgt>
<wgt id='1493'> +2.9609805e+11 </wgt>
<wgt id='1494'> +3.1055049e+11 </wgt>
<wgt id='1495'> +2.9896194e+11 </wgt>
<wgt id='1496'> +3.0027208e+11 </wgt>
<wgt id='1497'> +2.9979295e+11 </wgt>
<wgt id='1498'> +2.9932229e+11 </wgt>
<wgt id='1499'> +3.0145959e+11 </wgt>
<wgt id='1500'> +2.9857348e+11 </wgt>
<wgt id='1501'> +3.0006012e+11 </wgt>
<wgt id='1502'> +2.9835884e+11 </wgt>
<wgt id='1503'> +2.9647206e+11 </wgt>
<wgt id='1504'> +3.0290356e+11 </wgt>
<wgt id='1505'> +3.0062562e+11 </wgt>
<wgt id='1506'> +2.9860373e+11 </wgt>
<wgt id='1507'> +3.0087224e+11 </wgt>
<wgt id='1508'> +2.9891841e+11 </wgt>
<wgt id='1509'> +3.0016497e+11 </wgt>
<wgt id='1510'> +2.9714421e+11 </wgt>
<wgt id='1511'> +3.0069993e+11 </wgt>
<wgt id='1512'> +2.9928288e+11 </wgt>
<wgt id='1513'> +2.9951567e+11 </wgt>
<wgt id='1514'> +2.9966475e+11 </wgt>
<wgt id='1515'> +3.0198456e+11 </wgt>
<wgt id='1516'> +3.0006547e+11 </wgt>
<wgt id='1517'> +2.9922372e+11 </wgt>
<wgt id='1518'> +2.9989490e+11 </wgt>
<wgt id='1519'> +2.9797344e+11 </wgt>
<wgt id='1520'> +3.0074766e+11 </wgt>
<wgt id='1521'> +2.9883511e+11 </wgt>
<wgt id='1522'> +3.0005041e+11 </wgt>
<wgt id='1523'> +3.0096330e+11 </wgt>
<wgt id='1524'> +3.0094353e+11 </wgt>
<wgt id='1525'> +3.0084071e+11 </wgt>
<wgt id='1526'> +3.0036218e+11 </wgt>
<wgt id='1527'> +2.9959408e+11 </wgt>
<wgt id='1528'> +2.9942876e+11 </wgt>
<wgt id='1529'> +2.9922881e+11 </wgt>
<wgt id='1530'> +2.9546708e+11 </wgt>
<wgt id='1531'> +2.9625367e+11 </wgt>
<wgt id='1532'> +2.9386488e+11 </wgt>
<wgt id='1533'> +2.9185754e+11 </wgt>
<wgt id='1534'> +2.9463997e+11 </wgt>
<wgt id='1535'> +2.9872585e+11 </wgt>
<wgt id='1536'> +2.9320162e+11 </wgt>
<wgt id='1537'> +2.9614496e+11 </wgt>
<wgt id='1538'> +2.9308979e+11 </wgt>
<wgt id='1539'> +3.0247937e+11 </wgt>
<wgt id='1540'> +2.9539396e+11 </wgt>
<wgt id='1541'> +2.9638138e+11 </wgt>
<wgt id='1542'> +2.9615934e+11 </wgt>
<wgt id='1543'> +2.9728920e+11 </wgt>
<wgt id='1544'> +2.9435197e+11 </wgt>
<wgt id='1545'> +2.9429653e+11 </wgt>
<wgt id='1546'> +2.9235549e+11 </wgt>
<wgt id='1547'> +2.9854736e+11 </wgt>
<wgt id='1548'> +2.9424706e+11 </wgt>
<wgt id='1549'> +2.9291418e+11 </wgt>
<wgt id='1550'> +2.9686003e+11 </wgt>
<wgt id='1551'> +2.9689749e+11 </wgt>
<wgt id='1552'> +2.9557440e+11 </wgt>
<wgt id='1553'> +2.9805996e+11 </wgt>
<wgt id='1554'> +2.9609485e+11 </wgt>
<wgt id='1555'> +2.9685396e+11 </wgt>
<wgt id='1556'> +2.9861436e+11 </wgt>
<wgt id='1557'> +2.9552387e+11 </wgt>
<wgt id='1558'> +2.9623252e+11 </wgt>
<wgt id='1559'> +2.9423122e+11 </wgt>
<wgt id='1560'> +2.9503743e+11 </wgt>
<wgt id='1561'> +2.9231419e+11 </wgt>
<wgt id='1562'> +2.9481742e+11 </wgt>
<wgt id='1563'> +2.9617860e+11 </wgt>
<wgt id='1564'> +2.9586907e+11 </wgt>
<wgt id='1565'> +2.9844249e+11 </wgt>
<wgt id='1566'> +2.9654437e+11 </wgt>
<wgt id='1567'> +2.9981586e+11 </wgt>
<wgt id='1568'> +2.9619749e+11 </wgt>
<wgt id='1569'> +2.9589168e+11 </wgt>
<wgt id='1570'> +2.9799236e+11 </wgt>
<wgt id='1571'> +2.9604435e+11 </wgt>
<wgt id='1572'> +2.9796045e+11 </wgt>
<wgt id='1573'> +2.9905087e+11 </wgt>
<wgt id='1574'> +2.6540676e+11 </wgt>
<wgt id='1575'> +2.6547912e+11 </wgt>
<wgt id='1576'> +2.6533902e+11 </wgt>
<wgt id='1577'> +2.6542505e+11 </wgt>
<wgt id='1578'> +2.6601748e+11 </wgt>
<wgt id='1579'> +2.6627381e+11 </wgt>
<wgt id='1580'> +2.6604627e+11 </wgt>
<wgt id='1581'> +2.6477713e+11 </wgt>
<wgt id='1582'> +2.6446893e+11 </wgt>
<wgt id='1583'> +2.6496578e+11 </wgt>
<wgt id='1584'> +2.6598617e+11 </wgt>
<wgt id='1585'> +2.6559487e+11 </wgt>
<wgt id='1586'> +2.6437919e+11 </wgt>
<wgt id='1587'> +2.6463721e+11 </wgt>
<wgt id='1588'> +2.6413251e+11 </wgt>
<wgt id='1589'> +2.6515671e+11 </wgt>
<wgt id='1590'> +2.6521826e+11 </wgt>
<wgt id='1591'> +2.6547445e+11 </wgt>
<wgt id='1592'> +2.6437302e+11 </wgt>
<wgt id='1593'> +2.6454318e+11 </wgt>
<wgt id='1594'> +2.6621725e+11 </wgt>
<wgt id='1595'> +2.6317772e+11 </wgt>
<wgt id='1596'> +2.6897916e+11 </wgt>
<wgt id='1597'> +2.6713940e+11 </wgt>
<wgt id='1598'> +2.6736684e+11 </wgt>
<wgt id='1599'> +2.6266774e+11 </wgt>
<wgt id='1600'> +2.6982325e+11 </wgt>
<wgt id='1601'> +2.6754933e+11 </wgt>
<wgt id='1602'> +2.6546437e+11 </wgt>
<wgt id='1603'> +2.7579093e+11 </wgt>
<wgt id='1604'> +2.6545583e+11 </wgt>
</rwgt>
</event>
<event>
 9      1 +2.8343000e+11 1.39999600e+03 7.81738600e-03 7.88881400e-02
       21 -1    0    0  504  503 +0.0000000000e+00 +0.0000000000e+00 +7.1053931718e+02 7.1053931718e+02 0.0000000000e+00 0.0000e+00 1.0000e+00
       21 -1    0    0  503  504 -0.0000000000e+00 -0.0000000000e+00 -6.8961284705e+02 6.8961284705e+02 0.0000000000e+00 0.0000e+00 1.0000e+00
       45  2    1    2    0    0 +0.0000000000e+00 -1.1368683772e-13 +2.0926470137e+01 1.4001521642e+03 1.3999957735e+03 0.0000e+00 0.0000e+00
       25  2    3    3    0    0 -3.3080317547e+02 +6.0336995560e+02 +7.8744040770e+01 7.0378379409e+02 1.2499984258e+02 0.0000e+00 0.0000e+00
       35  2    3    3    0    0 +3.3080317547e+02 -6.0336995560e+02 -5.7817570633e+01 6.9636837014e+02 8.9999951310e+01 0.0000e+00 0.0000e+00
        5  1    5    5  501    0 +4.3520075445e+01 -9.6513033447e+01 -4.0661790227e+01 1.1348965403e+02 4.2140000000e+00 0.0000e+00 -1.0000e+00
       -5  1    5    5    0  501 +2.8728310002e+02 -5.0685692215e+02 -1.7155780406e+01 5.8287871611e+02 4.2140000000e+00 0.0000e+00 -1.0000e+00
        5  1    4    4  502    0 -1.2011477993e+02 +3.1723813566e+02 +7.9468160849e+01 3.4842580481e+02 4.2140000000e+00 0.0000e+00 -1.0000e+00
       -5  1    4    4    0  502 -2.1068839554e+02 +2.8613181994e+02 -7.2412007932e-01 3.5535798928e+02 4.2140000000e+00 0.0000e+00 -1.0000e+00
<mgrwt>
<rscale>  0 0.13999958E+04</rscale>
<asrwt>0</asrwt>
<pdfrwt beam="1">  1       21 0.10931374E+00 0.13999958E+04</pdfrwt>
<pdfrwt beam="2">  1       21 0.10609429E+00 0.13999958E+04</pdfrwt>
<totfact> 0.35882829E+02</totfact>
</mgrwt>
<rwgt>
<wgt id='1001'> +2.8343000e+11 </wgt>
<wgt id='1002'> +2.8397389e+11 </wgt>
<wgt id='1003'> +2.8397349e+11 </wgt>
<wgt id='1004'> +3.1831103e+11 </wgt>
<wgt id='1005'> +2.8343000e+11 </wgt>
<wgt id='1006'> +2.8343000e+11 </wgt>
<wgt id='1007'> +2.8397389e+11 </wgt>
<wgt id='1008'> +2.8397349e+11 </wgt>
<wgt id='1009'> +3.1831103e+11 </wgt>
<wgt id='1010'> +2.8343000e+11 </wgt>
<wgt id='1011'> +2.8343000e+11 </wgt>
<wgt id='1012'> +2.8397389e+11 </wgt>
<wgt id='1013'> +2.8397349e+11 </wgt>
<wgt id='1014'> +3.1831103e+11 </wgt>
<wgt id='1015'> +2.8343000e+11 </wgt>
<wgt id='1016'> +2.5470500e+11 </wgt>
<wgt id='1017'> +2.5516608e+11 </wgt>
<wgt id='1018'> +2.5516574e+11 </wgt>
<wgt id='1019'> +2.8397349e+11 </wgt>
<wgt id='1020'> +2.5470500e+11 </wgt>
<wgt id='1021'> +2.5470500e+11 </wgt>
<wgt id='1022'> +2.5516608e+11 </wgt>
<wgt id='1023'> +2.5516574e+11 </wgt>
<wgt id='1024'> +2.8397349e+11 </wgt>
<wgt id='1025'> +2.5470500e+11 </wgt>
<wgt id='1026'> +2.5470500e+11 </wgt>
<wgt id='1027'> +2.5516608e+11 </wgt>
<wgt id='1028'> +2.5516574e+11 </wgt>
<wgt id='1029'> +2.8397349e+11 </wgt>
<wgt id='1030'> +2.5470500e+11 </wgt>
<wgt id='1031'> +3.1765903e+11 </wgt>
<wgt id='1032'> +3.1831151e+11 </wgt>
<wgt id='1033'> +3.1831103e+11 </wgt>
<wgt id='1034'> +3.5957878e+11 </wgt>
<wgt id='1035'> +3.1765903e+11 </wgt>
<wgt id='1036'> +3.1765903e+11 </wgt>
<wgt id='1037'> +3.1831151e+11 </wgt>
<wgt id='1038'> +3.1831103e+11 </wgt>
<wgt id='1039'> +3.5957878e+11 </wgt>
<wgt id='1040'> +3.1765903e+11 </wgt>
<wgt id='1041'> +3.1765903e+11 </wgt>
<wgt id='1042'> +3.1831151e+11 </wgt>
<wgt id='1043'> +3.1831103e+11 </wgt>
<wgt id='1044'> +3.5957878e+11 </wgt>
<wgt id='1045'> +3.1765903e+11 </wgt>
<wgt id='1046'> +2.8343000e+11 </wgt>
<wgt id='1047'> +2.8343000e+11 </wgt>
<wgt id='1048'> +2.8343000e+11 </wgt>
<wgt id='1049'> +2.8225594e+11 </wgt>
<wgt id='1050'> +2.8304290e+11 </wgt>
<wgt id='1051'> +2.8377136e+11 </wgt>
<wgt id='1052'> +2.8419528e+11 </wgt>
<wgt id='1053'> +2.8189640e+11 </wgt>
<wgt id='1054'> +2.8388635e+11 </wgt>
<wgt id='1055'> +2.8224834e+11 </wgt>
<wgt id='1056'> +2.8179634e+11 </wgt>
<wgt id='1057'> +2.8422846e+11 </wgt>
<wgt id='1058'> +2.8305983e+11 </wgt>
<wgt id='1059'> +2.8541428e+11 </wgt>
<wgt id='1060'> +2.8366115e+11 </wgt>
<wgt id='1061'> +2.8421652e+11 </wgt>
<wgt id='1062'> +2.8400399e+11 </wgt>
<wgt id='1063'> +2.8363532e+11 </wgt>
<wgt id='1064'> +2.8471015e+11 </wgt>
<wgt id='1065'> +2.8488024e+11 </wgt>
<wgt id='1066'> +2.8202050e+11 </wgt>
<wgt id='1067'> +2.7964551e+11 </wgt>
<wgt id='1068'> +2.8382952e+11 </wgt>
<wgt id='1069'> +2.8280004e+11 </wgt>
<wgt id='1070'> +2.8340335e+11 </wgt>
<wgt id='1071'> +2.8495436e+11 </wgt>
<wgt id='1072'> +2.8110715e+11 </wgt>
<wgt id='1073'> +2.8412669e+11 </wgt>
<wgt id='1074'> +2.8302030e+11 </wgt>
<wgt id='1075'> +2.8440209e+11 </wgt>
<wgt id='1076'> +2.8330039e+11 </wgt>
<wgt id='1077'> +2.8299701e+11 </wgt>
<wgt id='1078'> +2.8409665e+11 </wgt>
<wgt id='1079'> +2.8176691e+11 </wgt>
<wgt id='1080'> +2.8276072e+11 </wgt>
<wgt id='1081'> +2.8302994e+11 </wgt>
<wgt id='1082'> +2.8203779e+11 </wgt>
<wgt id='1083'> +2.8400199e+11 </wgt>
<wgt id='1084'> +2.8407105e+11 </wgt>
<wgt id='1085'> +2.8285935e+11 </wgt>
<wgt id='1086'> +2.8278624e+11 </wgt>
<wgt id='1087'> +2.8307979e+11 </wgt>
<wgt id='1088'> +2.8293498e+11 </wgt>
<wgt id='1089'> +2.8279750e+11 </wgt>
<wgt id='1090'> +2.8413202e+11 </wgt>
<wgt id='1091'> +2.8348009e+11 </wgt>
<wgt id='1092'> +2.8371075e+11 </wgt>
<wgt id='1093'> +2.8332962e+11 </wgt>
<wgt id='1094'> +2.8292085e+11 </wgt>
<wgt id='1095'> +2.8354447e+11 </wgt>
<wgt id='1096'> +2.8339378e+11 </wgt>
<wgt id='1097'> +2.8303955e+11 </wgt>
<wgt id='1098'> +2.8307661e+11 </wgt>
<wgt id='1099'> +2.8323982e+11 </wgt>
<wgt id='1100'> +2.8402244e+11 </wgt>
<wgt id='1101'> +2.8341445e+11 </wgt>
<wgt id='1102'> +2.8328975e+11 </wgt>
<wgt id='1103'> +2.8310083e+11 </wgt>
<wgt id='1104'> +2.8310269e+11 </wgt>
<wgt id='1105'> +2.8353379e+11 </wgt>
<wgt id='1106'> +2.8377166e+11 </wgt>
<wgt id='1107'> +2.8334640e+11 </wgt>
<wgt id='1108'> +2.8333494e+11 </wgt>
<wgt id='1109'> +2.8324486e+11 </wgt>
<wgt id='1110'> +2.8376156e+11 </wgt>
<wgt id='1111'> +2.8356177e+11 </wgt>
<wgt id='1112'> +2.8339570e+11 </wgt>
<wgt id='1113'> +2.8373598e+11 </wgt>
<wgt id='1114'> +2.8311006e+11 </wgt>
<wgt id='1115'> +2.8326352e+11 </wgt>
<wgt id='1116'> +2.8372863e+11 </wgt>
<wgt id='1117'> +2.8337571e+11 </wgt>
<wgt id='1118'> +2.8353533e+11 </wgt>
<wgt id='1119'> +2.8325668e+11 </wgt>
<wgt id='1120'> +2.8329013e+11 </wgt>
<wgt id='1121'> +2.8350427e+11 </wgt>
<wgt id='1122'> +2.8322663e+11 </wgt>
<wgt id='1123'> +2.8337131e+11 </wgt>
<wgt id='1124'> +2.8332855e+11 </wgt>
<wgt id='1125'> +2.8359101e+11 </wgt>
<wgt id='1126'> +2.8353509e+11 </wgt>
<wgt id='1127'> +2.8332181e+11 </wgt>
<wgt id='1128'> +2.8347628e+11 </wgt>
<wgt id='1129'> +2.8339592e+11 </wgt>
<wgt id='1130'> +2.8346845e+11 </wgt>
<wgt id='1131'> +2.8369075e+11 </wgt>
<wgt id='1132'> +2.8335373e+11 </wgt>
<wgt id='1133'> +2.8350594e+11 </wgt>
<wgt id='1134'> +2.8341208e+11 </wgt>
<wgt id='1135'> +2.8346713e+11 </wgt>
<wgt id='1136'> +2.8340328e+11 </wgt>
<wgt id='1137'> +2.8329152e+11 </wgt>
<wgt id='1138'> +2.8354133e+11 </wgt>
<wgt id='1139'> +2.8346805e+11 </wgt>
<wgt id='1140'> +2.8364365e+11 </wgt>
<wgt id='1141'> +2.8330860e+11 </wgt>
<wgt id='1142'> +2.8349839e+11 </wgt>
<wgt id='1143'> +2.8359096e+11 </wgt>
<wgt id='1144'> +2.8334623e+11 </wgt>
<wgt id='1145'> +2.8355214e+11 </wgt>
<wgt id='1146'> +2.8340864e+11 </wgt>
<wgt id='1147'> +2.8347172e+11 </wgt>
<wgt id='1148'> +2.8343000e+11 </wgt>
<wgt id='1149'> +2.8343000e+11 </wgt>
<wgt id='1150'> +2.9080546e+11 </wgt>
<wgt id='1151'> +2.8134632e+11 </wgt>
<wgt id='1152'> +2.8580095e+11 </wgt>
<wgt id='1153'> +2.8779122e+11 </wgt>
<wgt id='1154'> +2.8759866e+11 </wgt>
<wgt id='1155'> +2.8827873e+11 </wgt>
<wgt id='1156'> +2.7649145e+11 </wgt>
<wgt id='1157'> +2.7678883e+11 </wgt>
<wgt id='1158'> +2.7768096e+11 </wgt>
<wgt id='1159'> +2.9604610e+11 </wgt>
<wgt id='1160'> +2.8146750e+11 </wgt>
<wgt id='1161'> +2.8556811e+11 </wgt>
<wgt id='1162'> +2.7586659e+11 </wgt>
<wgt id='1163'> +2.8691094e+11 </wgt>
<wgt id='1164'> +2.6752552e+11 </wgt>
<wgt id='1165'> +2.7947097e+11 </wgt>
<wgt id='1166'> +2.8512956e+11 </wgt>
<wgt id='1167'> +2.8004344e+11 </wgt>
<wgt id='1168'> +2.7663019e+11 </wgt>
<wgt id='1169'> +2.7600469e+11 </wgt>
<wgt id='1170'> +2.7564512e+11 </wgt>
<wgt id='1171'> +2.7352611e+11 </wgt>
<wgt id='1172'> +2.7765895e+11 </wgt>
<wgt id='1173'> +2.8813194e+11 </wgt>
<wgt id='1174'> +2.7980127e+11 </wgt>
<wgt id='1175'> +2.7511599e+11 </wgt>
<wgt id='1176'> +2.8639339e+11 </wgt>
<wgt id='1177'> +2.7935458e+11 </wgt>
<wgt id='1178'> +2.8318200e+11 </wgt>
<wgt id='1179'> +2.8022969e+11 </wgt>
<wgt id='1180'> +2.8330061e+11 </wgt>
<wgt id='1181'> +2.7578518e+11 </wgt>
<wgt id='1182'> +2.8174636e+11 </wgt>
<wgt id='1183'> +2.9597294e+11 </wgt>
<wgt id='1184'> +2.7559562e+11 </wgt>
<wgt id='1185'> +2.8007302e+11 </wgt>
<wgt id='1186'> +2.7143975e+11 </wgt>
<wgt id='1187'> +2.8583451e+11 </wgt>
<wgt id='1188'> +2.7635138e+11 </wgt>
<wgt id='1189'> +2.8577265e+11 </wgt>
<wgt id='1190'> +2.8436827e+11 </wgt>
<wgt id='1191'> +2.9540428e+11 </wgt>
<wgt id='1192'> +2.9197692e+11 </wgt>
<wgt id='1193'> +2.9554361e+11 </wgt>
<wgt id='1194'> +2.8478483e+11 </wgt>
<wgt id='1195'> +2.8380534e+11 </wgt>
<wgt id='1196'> +2.9241025e+11 </wgt>
<wgt id='1197'> +2.9421133e+11 </wgt>
<wgt id='1198'> +2.7497160e+11 </wgt>
<wgt id='1199'> +2.8162968e+11 </wgt>
<wgt id='1200'> +2.8213476e+11 </wgt>
<wgt id='1201'> +2.7934048e+11 </wgt>
<wgt id='1202'> +2.8874799e+11 </wgt>
<wgt id='1203'> +2.7751791e+11 </wgt>
<wgt id='1204'> +2.8855570e+11 </wgt>
<wgt id='1205'> +2.8522004e+11 </wgt>
<wgt id='1206'> +2.7638048e+11 </wgt>
<wgt id='1207'> +2.9324985e+11 </wgt>
<wgt id='1208'> +2.7298113e+11 </wgt>
<wgt id='1209'> +2.7848630e+11 </wgt>
<wgt id='1210'> +2.8019454e+11 </wgt>
<wgt id='1211'> +2.8571987e+11 </wgt>
<wgt id='1212'> +2.8372924e+11 </wgt>
<wgt id='1213'> +2.9360797e+11 </wgt>
<wgt id='1214'> +2.7570125e+11 </wgt>
<wgt id='1215'> +2.9226138e+11 </wgt>
<wgt id='1216'> +2.8612680e+11 </wgt>
<wgt id='1217'> +2.7590606e+11 </wgt>
<wgt id='1218'> +2.8481448e+11 </wgt>
<wgt id='1219'> +2.9446944e+11 </wgt>
<wgt id='1220'> +2.7700196e+11 </wgt>
<wgt id='1221'> +2.7498330e+11 </wgt>
<wgt id='1222'> +2.8050542e+11 </wgt>
<wgt id='1223'> +2.7259578e+11 </wgt>
<wgt id='1224'> +2.8354882e+11 </wgt>
<wgt id='1225'> +2.8806980e+11 </wgt>
<wgt id='1226'> +2.9084788e+11 </wgt>
<wgt id='1227'> +2.7275030e+11 </wgt>
<wgt id='1228'> +2.8136303e+11 </wgt>
<wgt id='1229'> +3.0288258e+11 </wgt>
<wgt id='1230'> +2.9434418e+11 </wgt>
<wgt id='1231'> +2.7947097e+11 </wgt>
<wgt id='1232'> +2.8924646e+11 </wgt>
<wgt id='1233'> +2.7826182e+11 </wgt>
<wgt id='1234'> +2.7634666e+11 </wgt>
<wgt id='1235'> +3.0321596e+11 </wgt>
<wgt id='1236'> +2.7659883e+11 </wgt>
<wgt id='1237'> +2.8992872e+11 </wgt>
<wgt id='1238'> +2.8994192e+11 </wgt>
<wgt id='1239'> +2.9234963e+11 </wgt>
<wgt id='1240'> +2.8579207e+11 </wgt>
<wgt id='1241'> +2.8193799e+11 </wgt>
<wgt id='1242'> +2.8082379e+11 </wgt>
<wgt id='1243'> +2.8910507e+11 </wgt>
<wgt id='1244'> +2.8115967e+11 </wgt>
<wgt id='1245'> +2.8191611e+11 </wgt>
<wgt id='1246'> +3.0735667e+11 </wgt>
<wgt id='1247'> +2.8384854e+11 </wgt>
<wgt id='1248'> +2.7549039e+11 </wgt>
<wgt id='1249'> +2.7776333e+11 </wgt>
<wgt id='1250'> +2.9211593e+11 </wgt>
<wgt id='1251'> +2.9862172e+11 </wgt>
<wgt id='1252'> +2.8712743e+11 </wgt>
<wgt id='1253'> +2.8511371e+11 </wgt>
<wgt id='1254'> +2.8862798e+11 </wgt>
<wgt id='1255'> +2.9788072e+11 </wgt>
<wgt id='1256'> +2.9498000e+11 </wgt>
<wgt id='1257'> +2.8501797e+11 </wgt>
<wgt id='1258'> +3.0044876e+11 </wgt>
<wgt id='1259'> +2.9454936e+11 </wgt>
<wgt id='1260'> +3.2546449e+11 </wgt>
<wgt id='1261'> +3.1374513e+11 </wgt>
<wgt id='1262'> +2.8951599e+11 </wgt>
<wgt id='1263'> +2.9662166e+11 </wgt>
<wgt id='1264'> +2.9839841e+11 </wgt>
<wgt id='1265'> +2.9878879e+11 </wgt>
<wgt id='1266'> +2.9414063e+11 </wgt>
<wgt id='1267'> +3.1466209e+11 </wgt>
<wgt id='1268'> +2.9430159e+11 </wgt>
<wgt id='1269'> +2.8717940e+11 </wgt>
<wgt id='1270'> +2.9098334e+11 </wgt>
<wgt id='1271'> +2.7971759e+11 </wgt>
<wgt id='1272'> +2.9332495e+11 </wgt>
<wgt id='1273'> +2.9192396e+11 </wgt>
<wgt id='1274'> +2.8768556e+11 </wgt>
<wgt id='1275'> +2.9859434e+11 </wgt>
<wgt id='1276'> +2.9529619e+11 </wgt>
<wgt id='1277'> +2.9067723e+11 </wgt>
<wgt id='1278'> +2.8602216e+11 </wgt>
<wgt id='1279'> +2.8121467e+11 </wgt>
<wgt id='1280'> +2.9412818e+11 </wgt>
<wgt id='1281'> +2.8584056e+11 </wgt>
<wgt id='1282'> +2.9661450e+11 </wgt>
<wgt id='1283'> +2.9591338e+11 </wgt>
<wgt id='1284'> +3.1490532e+11 </wgt>
<wgt id='1285'> +3.0817054e+11 </wgt>
<wgt id='1286'> +3.2863386e+11 </wgt>
<wgt id='1287'> +3.0323069e+11 </wgt>
<wgt id='1288'> +3.2339702e+11 </wgt>
<wgt id='1289'> +3.1294105e+11 </wgt>
<wgt id='1290'> +3.1135221e+11 </wgt>
<wgt id='1291'> +2.7787936e+11 </wgt>
<wgt id='1292'> +2.9724638e+11 </wgt>
<wgt id='1293'> +3.0001929e+11 </wgt>
<wgt id='1294'> +3.1420606e+11 </wgt>
<wgt id='1295'> +2.9766521e+11 </wgt>
<wgt id='1296'> +3.1505884e+11 </wgt>
<wgt id='1297'> +2.9557811e+11 </wgt>
<wgt id='1298'> +2.8775130e+11 </wgt>
<wgt id='1299'> +2.9840501e+11 </wgt>
<wgt id='1300'> +2.8793689e+11 </wgt>
<wgt id='1301'> +2.8103343e+11 </wgt>
<wgt id='1302'> +2.7521016e+11 </wgt>
<wgt id='1303'> +2.9826431e+11 </wgt>
<wgt id='1304'> +3.0555419e+11 </wgt>
<wgt id='1305'> +2.9827670e+11 </wgt>
<wgt id='1306'> +3.0512857e+11 </wgt>
<wgt id='1307'> +3.0403967e+11 </wgt>
<wgt id='1308'> +3.2515999e+11 </wgt>
<wgt id='1309'> +2.9565393e+11 </wgt>
<wgt id='1310'> +3.0214012e+11 </wgt>
<wgt id='1311'> +3.0818675e+11 </wgt>
<wgt id='1312'> +2.9888577e+11 </wgt>
<wgt id='1313'> +2.9668502e+11 </wgt>
<wgt id='1314'> +3.0437546e+11 </wgt>
<wgt id='1315'> +2.8477388e+11 </wgt>
<wgt id='1316'> +2.9842323e+11 </wgt>
<wgt id='1317'> +3.0112014e+11 </wgt>
<wgt id='1318'> +2.8601210e+11 </wgt>
<wgt id='1319'> +3.0805339e+11 </wgt>
<wgt id='1320'> +3.0880206e+11 </wgt>
<wgt id='1321'> +2.9363169e+11 </wgt>
<wgt id='1322'> +2.9774322e+11 </wgt>
<wgt id='1323'> +2.9876951e+11 </wgt>
<wgt id='1324'> +3.0113885e+11 </wgt>
<wgt id='1325'> +3.1084829e+11 </wgt>
<wgt id='1326'> +3.0259304e+11 </wgt>
<wgt id='1327'> +2.9299213e+11 </wgt>
<wgt id='1328'> +3.0284511e+11 </wgt>
<wgt id='1329'> +2.9768926e+11 </wgt>
<wgt id='1330'> +2.9082000e+11 </wgt>
<wgt id='1331'> +3.1909626e+11 </wgt>
<wgt id='1332'> +2.8578192e+11 </wgt>
<wgt id='1333'> +3.0042400e+11 </wgt>
<wgt id='1334'> +3.1380607e+11 </wgt>
<wgt id='1335'> +2.9243011e+11 </wgt>
<wgt id='1336'> +3.0192317e+11 </wgt>
<wgt id='1337'> +3.0842215e+11 </wgt>
<wgt id='1338'> +2.8983437e+11 </wgt>
<wgt id='1339'> +3.2039176e+11 </wgt>
<wgt id='1340'> +3.0151882e+11 </wgt>
<wgt id='1341'> +3.0446330e+11 </wgt>
<wgt id='1342'> +3.1589774e+11 </wgt>
<wgt id='1343'> +3.1028206e+11 </wgt>
<wgt id='1344'> +3.0294419e+11 </wgt>
<wgt id='1345'> +2.8040744e+11 </wgt>
<wgt id='1346'> +2.9934785e+11 </wgt>
<wgt id='1347'> +2.8664974e+11 </wgt>
<wgt id='1348'> +2.8791610e+11 </wgt>
<wgt id='1349'> +2.8995190e+11 </wgt>
<wgt id='1350'> +3.0024426e+11 </wgt>
<wgt id='1351'> +2.9688453e+11 </wgt>
<wgt id='1352'> +3.0034351e+11 </wgt>
<wgt id='1353'> +2.9703172e+11 </wgt>
<wgt id='1354'> +3.0682040e+11 </wgt>
<wgt id='1355'> +2.7541033e+11 </wgt>
<wgt id='1356'> +2.7816749e+11 </wgt>
<wgt id='1357'> +2.7633211e+11 </wgt>
<wgt id='1358'> +2.7279944e+11 </wgt>
<wgt id='1359'> +2.7619693e+11 </wgt>
<wgt id='1360'> +2.6856268e+11 </wgt>
<wgt id='1361'> +2.7548866e+11 </wgt>
<wgt id='1362'> +2.7707678e+11 </wgt>
<wgt id='1363'> +2.6918420e+11 </wgt>
<wgt id='1364'> +2.8175294e+11 </wgt>
<wgt id='1365'> +2.7307724e+11 </wgt>
<wgt id='1366'> +2.7567975e+11 </wgt>
<wgt id='1367'> +2.7627708e+11 </wgt>
<wgt id='1368'> +2.7543511e+11 </wgt>
<wgt id='1369'> +2.7981113e+11 </wgt>
<wgt id='1370'> +2.7353254e+11 </wgt>
<wgt id='1371'> +2.7296993e+11 </wgt>
<wgt id='1372'> +2.7998505e+11 </wgt>
<wgt id='1373'> +2.7907914e+11 </wgt>
<wgt id='1374'> +2.6731145e+11 </wgt>
<wgt id='1375'> +2.7423126e+11 </wgt>
<wgt id='1376'> +2.7636728e+11 </wgt>
<wgt id='1377'> +2.7528474e+11 </wgt>
<wgt id='1378'> +2.7110118e+11 </wgt>
<wgt id='1379'> +2.7387857e+11 </wgt>
<wgt id='1380'> +2.7387128e+11 </wgt>
<wgt id='1381'> +2.8073780e+11 </wgt>
<wgt id='1382'> +2.7505898e+11 </wgt>
<wgt id='1383'> +2.7545289e+11 </wgt>
<wgt id='1384'> +2.7382513e+11 </wgt>
<wgt id='1385'> +2.7403570e+11 </wgt>
<wgt id='1386'> +2.7746763e+11 </wgt>
<wgt id='1387'> +2.7443835e+11 </wgt>
<wgt id='1388'> +2.7175289e+11 </wgt>
<wgt id='1389'> +2.7366756e+11 </wgt>
<wgt id='1390'> +2.7424842e+11 </wgt>
<wgt id='1391'> +2.7314779e+11 </wgt>
<wgt id='1392'> +2.7325881e+11 </wgt>
<wgt id='1393'> +2.7331560e+11 </wgt>
<wgt id='1394'> +2.7308823e+11 </wgt>
<wgt id='1395'> +2.7118065e+11 </wgt>
<wgt id='1396'> +2.7647252e+11 </wgt>
<wgt id='1397'> +2.7599601e+11 </wgt>
<wgt id='1398'> +2.7599455e+11 </wgt>
<wgt id='1399'> +2.7095347e+11 </wgt>
<wgt id='1400'> +2.7252477e+11 </wgt>
<wgt id='1401'> +2.7383724e+11 </wgt>
<wgt id='1402'> +2.7868222e+11 </wgt>
<wgt id='1403'> +2.7839303e+11 </wgt>
<wgt id='1404'> +2.7306142e+11 </wgt>
<wgt id='1405'> +2.8152222e+11 </wgt>
<wgt id='1406'> +2.7508867e+11 </wgt>
<wgt id='1407'> +2.7614010e+11 </wgt>
<wgt id='1408'> +2.7852652e+11 </wgt>
<wgt id='1409'> +2.7338332e+11 </wgt>
<wgt id='1410'> +2.7328353e+11 </wgt>
<wgt id='1411'> +2.7509064e+11 </wgt>
<wgt id='1412'> +2.7434969e+11 </wgt>
<wgt id='1413'> +2.7230600e+11 </wgt>
<wgt id='1414'> +2.7707421e+11 </wgt>
<wgt id='1415'> +2.8129734e+11 </wgt>
<wgt id='1416'> +2.7858615e+11 </wgt>
<wgt id='1417'> +2.6859012e+11 </wgt>
<wgt id='1418'> +2.7713873e+11 </wgt>
<wgt id='1419'> +2.7892191e+11 </wgt>
<wgt id='1420'> +2.7466922e+11 </wgt>
<wgt id='1421'> +2.8146327e+11 </wgt>
<wgt id='1422'> +2.6778292e+11 </wgt>
<wgt id='1423'> +2.8066800e+11 </wgt>
<wgt id='1424'> +2.7640751e+11 </wgt>
<wgt id='1425'> +2.7559439e+11 </wgt>
<wgt id='1426'> +2.7903508e+11 </wgt>
<wgt id='1427'> +2.7538701e+11 </wgt>
<wgt id='1428'> +2.7528093e+11 </wgt>
<wgt id='1429'> +2.7110076e+11 </wgt>
<wgt id='1430'> +2.7063206e+11 </wgt>
<wgt id='1431'> +2.7075236e+11 </wgt>
<wgt id='1432'> +2.7743985e+11 </wgt>
<wgt id='1433'> +2.7615194e+11 </wgt>
<wgt id='1434'> +2.8204105e+11 </wgt>
<wgt id='1435'> +2.7456105e+11 </wgt>
<wgt id='1436'> +2.7961242e+11 </wgt>
<wgt id='1437'> +2.7821630e+11 </wgt>
<wgt id='1438'> +2.7339065e+11 </wgt>
<wgt id='1439'> +2.7600355e+11 </wgt>
<wgt id='1440'> +2.8008563e+11 </wgt>
<wgt id='1441'> +2.7542714e+11 </wgt>
<wgt id='1442'> +2.8316975e+11 </wgt>
<wgt id='1443'> +2.7360548e+11 </wgt>
<wgt id='1444'> +2.7358013e+11 </wgt>
<wgt id='1445'> +2.7845891e+11 </wgt>
<wgt id='1446'> +2.7751046e+11 </wgt>
<wgt id='1447'> +2.7134850e+11 </wgt>
<wgt id='1448'> +2.7776360e+11 </wgt>
<wgt id='1449'> +2.7668088e+11 </wgt>
<wgt id='1450'> +2.7346885e+11 </wgt>
<wgt id='1451'> +2.7663551e+11 </wgt>
<wgt id='1452'> +2.7865553e+11 </wgt>
<wgt id='1453'> +2.8063006e+11 </wgt>
<wgt id='1454'> +2.6883322e+11 </wgt>
<wgt id='1455'> +2.7466475e+11 </wgt>
<wgt id='1456'> +2.7465463e+11 </wgt>
<wgt id='1457'> +2.7418179e+11 </wgt>
<wgt id='1458'> +2.7720002e+11 </wgt>
<wgt id='1459'> +3.0509539e+11 </wgt>
<wgt id='1460'> +3.0042140e+11 </wgt>
<wgt id='1461'> +3.4719462e+11 </wgt>
<wgt id='1462'> +2.9973428e+11 </wgt>
<wgt id='1463'> +2.9998522e+11 </wgt>
<wgt id='1464'> +2.9941248e+11 </wgt>
<wgt id='1465'> +2.9979554e+11 </wgt>
<wgt id='1466'> +2.9967833e+11 </wgt>
<wgt id='1467'> +2.9989894e+11 </wgt>
<wgt id='1468'> +2.9946416e+11 </wgt>
<wgt id='1469'> +2.9928302e+11 </wgt>
<wgt id='1470'> +3.0010082e+11 </wgt>
<wgt id='1471'> +3.0021404e+11 </wgt>
<wgt id='1472'> +2.9924016e+11 </wgt>
<wgt id='1473'> +3.0088363e+11 </wgt>
<wgt id='1474'> +2.9863036e+11 </wgt>
<wgt id='1475'> +3.0083180e+11 </wgt>
<wgt id='1476'> +2.9895616e+11 </wgt>
<wgt id='1477'> +2.9915969e+11 </wgt>
<wgt id='1478'> +3.0107648e+11 </wgt>
<wgt id='1479'> +2.9915080e+11 </wgt>
<wgt id='1480'> +3.0014146e+11 </wgt>
<wgt id='1481'> +2.9931578e+11 </wgt>
<wgt id='1482'> +3.0029859e+11 </wgt>
<wgt id='1483'> +2.9983323e+11 </wgt>
<wgt id='1484'> +2.9959371e+11 </wgt>
<wgt id='1485'> +2.9993484e+11 </wgt>
<wgt id='1486'> +2.9925132e+11 </wgt>
<wgt id='1487'> +2.9998150e+11 </wgt>
<wgt id='1488'> +2.9942317e+11 </wgt>
<wgt id='1489'> +2.9938355e+11 </wgt>
<wgt id='1490'> +3.0068511e+11 </wgt>
<wgt id='1491'> +3.0465389e+11 </wgt>
<wgt id='1492'> +2.9698819e+11 </wgt>
<wgt id='1493'> +2.9624060e+11 </wgt>
<wgt id='1494'> +3.1068303e+11 </wgt>
<wgt id='1495'> +2.9910556e+11 </wgt>
<wgt id='1496'> +3.0040861e+11 </wgt>
<wgt id='1497'> +2.9993320e+11 </wgt>
<wgt id='1498'> +2.9946244e+11 </wgt>
<wgt id='1499'> +3.0159675e+11 </wgt>
<wgt id='1500'> +2.9871532e+11 </wgt>
<wgt id='1501'> +3.0020203e+11 </wgt>
<wgt id='1502'> +2.9849454e+11 </wgt>
<wgt id='1503'> +2.9662724e+11 </wgt>
<wgt id='1504'> +3.0302446e+11 </wgt>
<wgt id='1505'> +3.0077210e+11 </wgt>
<wgt id='1506'> +2.9873856e+11 </wgt>
<wgt id='1507'> +3.0097914e+11 </wgt>
<wgt id='1508'> +2.9913422e+11 </wgt>
<wgt id='1509'> +3.0030186e+11 </wgt>
<wgt id='1510'> +2.9729882e+11 </wgt>
<wgt id='1511'> +3.0083742e+11 </wgt>
<wgt id='1512'> +2.9942512e+11 </wgt>
<wgt id='1513'> +2.9965658e+11 </wgt>
<wgt id='1514'> +2.9980333e+11 </wgt>
<wgt id='1515'> +3.0210433e+11 </wgt>
<wgt id='1516'> +3.0021953e+11 </wgt>
<wgt id='1517'> +2.9936614e+11 </wgt>
<wgt id='1518'> +3.0002936e+11 </wgt>
<wgt id='1519'> +2.9811956e+11 </wgt>
<wgt id='1520'> +3.0088376e+11 </wgt>
<wgt id='1521'> +2.9898284e+11 </wgt>
<wgt id='1522'> +3.0018685e+11 </wgt>
<wgt id='1523'> +3.0110878e+11 </wgt>
<wgt id='1524'> +3.0107773e+11 </wgt>
<wgt id='1525'> +3.0099042e+11 </wgt>
<wgt id='1526'> +3.0049056e+11 </wgt>
<wgt id='1527'> +2.9973428e+11 </wgt>
<wgt id='1528'> +2.9958358e+11 </wgt>
<wgt id='1529'> +2.9935074e+11 </wgt>
<wgt id='1530'> +2.9557997e+11 </wgt>
<wgt id='1531'> +2.9658978e+11 </wgt>
<wgt id='1532'> +2.9420035e+11 </wgt>
<wgt id='1533'> +2.9222056e+11 </wgt>
<wgt id='1534'> +2.9497725e+11 </wgt>
<wgt id='1535'> +2.9906208e+11 </wgt>
<wgt id='1536'> +2.9349282e+11 </wgt>
<wgt id='1537'> +2.9647757e+11 </wgt>
<wgt id='1538'> +2.9342539e+11 </wgt>
<wgt id='1539'> +3.0284411e+11 </wgt>
<wgt id='1540'> +2.9570730e+11 </wgt>
<wgt id='1541'> +2.9665919e+11 </wgt>
<wgt id='1542'> +2.9648741e+11 </wgt>
<wgt id='1543'> +2.9760678e+11 </wgt>
<wgt id='1544'> +2.9468965e+11 </wgt>
<wgt id='1545'> +2.9463620e+11 </wgt>
<wgt id='1546'> +2.9269641e+11 </wgt>
<wgt id='1547'> +2.9888038e+11 </wgt>
<wgt id='1548'> +2.9457271e+11 </wgt>
<wgt id='1549'> +2.9326403e+11 </wgt>
<wgt id='1550'> +2.9716940e+11 </wgt>
<wgt id='1551'> +2.9724012e+11 </wgt>
<wgt id='1552'> +2.9589546e+11 </wgt>
<wgt id='1553'> +2.9836091e+11 </wgt>
<wgt id='1554'> +2.9642798e+11 </wgt>
<wgt id='1555'> +2.9718454e+11 </wgt>
<wgt id='1556'> +2.9894605e+11 </wgt>
<wgt id='1557'> +2.9591773e+11 </wgt>
<wgt id='1558'> +2.9655968e+11 </wgt>
<wgt id='1559'> +2.9458072e+11 </wgt>
<wgt id='1560'> +2.9537912e+11 </wgt>
<wgt id='1561'> +2.9260696e+11 </wgt>
<wgt id='1562'> +2.9514536e+11 </wgt>
<wgt id='1563'> +2.9650459e+11 </wgt>
<wgt id='1564'> +2.9621227e+11 </wgt>
<wgt id='1565'> +2.9879010e+11 </wgt>
<wgt id='1566'> +2.9690346e+11 </wgt>
<wgt id='1567'> +3.0016191e+11 </wgt>
<wgt id='1568'> +2.9653502e+11 </wgt>
<wgt id='1569'> +2.9622812e+11 </wgt>
<wgt id='1570'> +2.9795281e+11 </wgt>
<wgt id='1571'> +2.9638761e+11 </wgt>
<wgt id='1572'> +2.9826936e+11 </wgt>
<wgt id='1573'> +2.9934474e+11 </wgt>
<wgt id='1574'> +2.6347136e+11 </wgt>
<wgt id='1575'> +2.6354325e+11 </wgt>
<wgt id='1576'> +2.6340381e+11 </wgt>
<wgt id='1577'> +2.6348955e+11 </wgt>
<wgt id='1578'> +2.6407854e+11 </wgt>
<wgt id='1579'> +2.6433851e+11 </wgt>
<wgt id='1580'> +2.6411054e+11 </wgt>
<wgt id='1581'> +2.6284298e+11 </wgt>
<wgt id='1582'> +2.6253524e+11 </wgt>
<wgt id='1583'> +2.6303667e+11 </wgt>
<wgt id='1584'> +2.6404712e+11 </wgt>
<wgt id='1585'> +2.6365838e+11 </wgt>
<wgt id='1586'> +2.6244461e+11 </wgt>
<wgt id='1587'> +2.6270191e+11 </wgt>
<wgt id='1588'> +2.6219826e+11 </wgt>
<wgt id='1589'> +2.6322418e+11 </wgt>
<wgt id='1590'> +2.6328202e+11 </wgt>
<wgt id='1591'> +2.6353854e+11 </wgt>
<wgt id='1592'> +2.6244032e+11 </wgt>
<wgt id='1593'> +2.6261261e+11 </wgt>
<wgt id='1594'> +2.6427769e+11 </wgt>
<wgt id='1595'> +2.6125224e+11 </wgt>
<wgt id='1596'> +2.6702866e+11 </wgt>
<wgt id='1597'> +2.6519803e+11 </wgt>
<wgt id='1598'> +2.6542744e+11 </wgt>
<wgt id='1599'> +2.6074181e+11 </wgt>
<wgt id='1600'> +2.6787621e+11 </wgt>
<wgt id='1601'> +2.6561238e+11 </wgt>
<wgt id='1602'> +2.6352864e+11 </wgt>
<wgt id='1603'> +2.7376173e+11 </wgt>
<wgt id='1604'> +2.6355563e+11 </wgt>
</rwgt>
</event>
<event>
 9      1 +2.8343000e+11 1.39999900e+03 7.81738600e-03 7.88881200e-02
       21 -1    0    0  504  503 +0.0000000000e+00 +0.0000000000e+00 +7.0682878185e+02 7.0682878185e+02 0.0000000000e+00 0.0000e+00 1.0000e+00
       21 -1    0    0  503  504 -0.0000000000e+00 -0.0000000000e+00 -6.9323594802e+02 6.9323594802e+02 0.0000000000e+00 0.0000e+00 1.0000e+00
       45  2    1    2    0    0 +0.0000000000e+00 +5.6843418861e-14 +1.3592833831e+01 1.4000647299e+03 1.3999987438e+03 0.0000e+00 0.0000e+00
       25  2    3    3    0    0 -3.1621144262e+02 +3.1032355382e+02 -5.2410136611e+02 6.9756551400e+02 1.2500007946e+02 0.0000e+00 0.0000e+00
       35  2    3    3    0    0 +3.1621144262e+02 -3.1032355382e+02 +5.3769419994e+02 7.0249921587e+02 8.9998395302e+01 0.0000e+00 0.0000e+00
        5  1    5    5  501    0 +1.3307689619e+02 -8.9236804341e+01 +2.4268080788e+02 2.9083397301e+02 4.2140000000e+00 0.0000e+00 -1.0000e+00
       -5  1    5    5    0  501 +1.8313454644e+02 -2.2108674948e+02 +2.9501339206e+02 4.1166524286e+02 4.2140000000e+00 0.0000e+00 -1.0000e+00
        5  1    4    4  502    0 -1.3952046781e+01 +7.1547122355e+01 -1.0964774931e+02 1.3173472227e+02 4.2140000000e+00 0.0000e+00 1.0000e+00
       -5  1    4    4    0  502 -3.0225939584e+02 +2.3877643146e+02 -4.1445361680e+02 5.6583079173e+02 4.2140000000e+00 0.0000e+00 1.0000e+00
<mgrwt>
<rscale>  0 0.13999987E+04</rscale>
<asrwt>0</asrwt>
<pdfrwt beam="1">  1       21 0.10874289E+00 0.13999987E+04</pdfrwt>
<pdfrwt beam="2">  1       21 0.10665168E+00 0.13999987E+04</pdfrwt>
<totfact> 0.35886843E+02</totfact>
</mgrwt>
<rwgt>
<wgt id='1001'> +2.8343000e+11 </wgt>
<wgt id='1002'> +3.0420732e+11 </wgt>
<wgt id='1003'> +3.0419885e+11 </wgt>
<wgt id='1004'> +3.4257484e+11 </wgt>
<wgt id='1005'> +2.8343000e+11 </wgt>
<wgt id='1006'> +2.8343000e+11 </wgt>
<wgt id='1007'> +3.0420732e+11 </wgt>
<wgt id='1008'> +3.0419885e+11 </wgt>
<wgt id='1009'> +3.4257484e+11 </wgt>
<wgt id='1010'> +2.8343000e+11 </wgt>
<wgt id='1011'> +2.8343000e+11 </wgt>
<wgt id='1012'> +3.0420732e+11 </wgt>
<wgt id='1013'> +3.0419885e+11 </wgt>
<wgt id='1014'> +3.4257484e+11 </wgt>
<wgt id='1015'> +2.8343000e+11 </wgt>
<wgt id='1016'> +2.5470560e+11 </wgt>
<wgt id='1017'> +2.7219794e+11 </wgt>
<wgt id='1018'> +2.7219087e+11 </wgt>
<wgt id='1019'> +3.0419885e+11 </wgt>
<wgt id='1020'> +2.5470559e+11 </wgt>
<wgt id='1021'> +2.5470560e+11 </wgt>
<wgt id='1022'> +2.7219794e+11 </wgt>
<wgt id='1023'> +2.7219087e+11 </wgt>
<wgt id='1024'> +3.0419885e+11 </wgt>
<wgt id='1025'> +2.5470559e+11 </wgt>
<wgt id='1026'> +2.5470560e+11 </wgt>
<wgt id='1027'> +2.7219794e+11 </wgt>
<wgt id='1028'> +2.7219087e+11 </wgt>
<wgt id='1029'> +3.0419885e+11 </wgt>
<wgt id='1030'> +2.5470559e+11 </wgt>
<wgt id='1031'> +3.1765823e+11 </wgt>
<wgt id='1032'> +3.4258498e+11 </wgt>
<wgt id='1033'> +3.4257484e+11 </wgt>
<wgt id='1034'> +3.8909668e+11 </wgt>
<wgt id='1035'> +3.1765823e+11 </wgt>
<wgt id='1036'> +3.1765823e+11 </wgt>
<wgt id='1037'> +3.4258498e+11 </wgt>
<wgt id='1038'> +3.4257484e+11 </wgt>
<wgt id='1039'> +3.8909668e+11 </wgt>
<wgt id='1040'> +3.1765823e+11 </wgt>
<wgt id='1041'> +3.1765823e+11 </wgt>
<wgt id='1042'> +3.4258498e+11 </wgt>
<wgt id='1043'> +3.4257484e+11 </wgt>
<wgt id='1044'> +3.8909668e+11 </wgt>
<wgt id='1045'> +3.1765823e+11 </wgt>
<wgt id='1046'> +2.8343000e+11 </wgt>
<wgt id='1047'> +2.8343000e+11 </wgt>
<wgt id='1048'> +2.8343000e+11 </wgt>
<wgt id='1049'> +2.8225554e+11 </wgt>
<wgt id='1050'> +2.8304268e+11 </wgt>
<wgt id='1051'> +2.8377190e+11 </wgt>
<wgt id='1052'> +2.8419507e+11 </wgt>
<wgt id='1053'> +2.8189656e+11 </wgt>
<wgt id='1054'> +2.8388650e+11 </wgt>
<wgt id='1055'> +2.8224834e+11 </wgt>
<wgt id='1056'> +2.8179601e+11 </wgt>
<wgt id='1057'> +2.8422893e+11 </wgt>
<wgt id='1058'> +2.8306001e+11 </wgt>
<wgt id='1059'> +2.8541434e+11 </wgt>
<wgt id='1060'> +2.8366113e+11 </wgt>
<wgt id='1061'> +2.8421678e+11 </wgt>
<wgt id='1062'> +2.8400378e+11 </wgt>
<wgt id='1063'> +2.8363472e+11 </wgt>
<wgt id='1064'> +2.8471061e+11 </wgt>
<wgt id='1065'> +2.8488043e+11 </wgt>
<wgt id='1066'> +2.8202125e+11 </wgt>
<wgt id='1067'> +2.7964405e+11 </wgt>
<wgt id='1068'> +2.8383005e+11 </wgt>
<wgt id='1069'> +2.8280040e+11 </wgt>
<wgt id='1070'> +2.8340280e+11 </wgt>
<wgt id='1071'> +2.8495567e+11 </wgt>
<wgt id='1072'> +2.8110671e+11 </wgt>
<wgt id='1073'> +2.8412703e+11 </wgt>
<wgt id='1074'> +2.8301965e+11 </wgt>
<wgt id='1075'> +2.8440189e+11 </wgt>
<wgt id='1076'> +2.8330213e+11 </wgt>
<wgt id='1077'> +2.8299790e+11 </wgt>
<wgt id='1078'> +2.8409658e+11 </wgt>
<wgt id='1079'> +2.8176649e+11 </wgt>
<wgt id='1080'> +2.8276040e+11 </wgt>
<wgt id='1081'> +2.8303009e+11 </wgt>
<wgt id='1082'> +2.8203765e+11 </wgt>
<wgt id='1083'> +2.8400217e+11 </wgt>
<wgt id='1084'> +2.8407110e+11 </wgt>
<wgt id='1085'> +2.8285943e+11 </wgt>
<wgt id='1086'> +2.8278587e+11 </wgt>
<wgt id='1087'> +2.8307978e+11 </wgt>
<wgt id='1088'> +2.8293491e+11 </wgt>
<wgt id='1089'> +2.8279754e+11 </wgt>
<wgt id='1090'> +2.8413197e+11 </wgt>
<wgt id='1091'> +2.8347992e+11 </wgt>
<wgt id='1092'> +2.8371089e+11 </wgt>
<wgt id='1093'> +2.8332966e+11 </wgt>
<wgt id='1094'> +2.8292111e+11 </wgt>
<wgt id='1095'> +2.8354442e+11 </wgt>
<wgt id='1096'> +2.8339391e+11 </wgt>
<wgt id='1097'> +2.8303959e+11 </wgt>
<wgt id='1098'> +2.8307659e+11 </wgt>
<wgt id='1099'> +2.8323997e+11 </wgt>
<wgt id='1100'> +2.8402247e+11 </wgt>
<wgt id='1101'> +2.8341448e+11 </wgt>
<wgt id='1102'> +2.8328982e+11 </wgt>
<wgt id='1103'> +2.8310082e+11 </wgt>
<wgt id='1104'> +2.8310268e+11 </wgt>
<wgt id='1105'> +2.8353371e+11 </wgt>
<wgt id='1106'> +2.8377175e+11 </wgt>
<wgt id='1107'> +2.8334649e+11 </wgt>
<wgt id='1108'> +2.8333492e+11 </wgt>
<wgt id='1109'> +2.8324493e+11 </wgt>
<wgt id='1110'> +2.8376159e+11 </wgt>
<wgt id='1111'> +2.8356180e+11 </wgt>
<wgt id='1112'> +2.8339569e+11 </wgt>
<wgt id='1113'> +2.8373594e+11 </wgt>
<wgt id='1114'> +2.8311004e+11 </wgt>
<wgt id='1115'> +2.8326365e+11 </wgt>
<wgt id='1116'> +2.8372851e+11 </wgt>
<wgt id='1117'> +2.8337574e+11 </wgt>
<wgt id='1118'> +2.8353536e+11 </wgt>
<wgt id='1119'> +2.8325676e+11 </wgt>
<wgt id='1120'> +2.8329020e+11 </wgt>
<wgt id='1121'> +2.8350439e+11 </wgt>
<wgt id='1122'> +2.8322663e+11 </wgt>
<wgt id='1123'> +2.8337127e+11 </wgt>
<wgt id='1124'> +2.8332840e+11 </wgt>
<wgt id='1125'> +2.8359101e+11 </wgt>
<wgt id='1126'> +2.8353507e+11 </wgt>
<wgt id='1127'> +2.8332180e+11 </wgt>
<wgt id='1128'> +2.8347634e+11 </wgt>
<wgt id='1129'> +2.8339601e+11 </wgt>
<wgt id='1130'> +2.8346850e+11 </wgt>
<wgt id='1131'> +2.8369065e+11 </wgt>
<wgt id='1132'> +2.8335374e+11 </wgt>
<wgt id='1133'> +2.8350593e+11 </wgt>
<wgt id='1134'> +2.8341211e+11 </wgt>
<wgt id='1135'> +2.8346711e+11 </wgt>
<wgt id='1136'> +2.8340334e+11 </wgt>
<wgt id='1137'> +2.8329159e+11 </wgt>
<wgt id='1138'> +2.8354130e+11 </wgt>
<wgt id='1139'> +2.8346806e+11 </wgt>
<wgt id='1140'> +2.8364367e+11 </wgt>
<wgt id='1141'> +2.8330867e+11 </wgt>
<wgt id='1142'> +2.8349838e+11 </wgt>
<wgt id='1143'> +2.8359091e+11 </wgt>
<wgt id='1144'> +2.8334624e+11 </wgt>
<wgt id='1145'> +2.8355212e+11 </wgt>
<wgt id='1146'> +2.8340861e+11 </wgt>
<wgt id='1147'> +2.8347168e+11 </wgt>
<wgt id='1148'> +2.8343000e+11 </wgt>
<wgt id='1149'> +2.8343000e+11 </wgt>
<wgt id='1150'> +2.9079872e+11 </wgt>
<wgt id='1151'> +2.8134897e+11 </wgt>
<wgt id='1152'> +2.8580739e+11 </wgt>
<wgt id='1153'> +2.8779261e+11 </wgt>
<wgt id='1154'> +2.8760175e+11 </wgt>
<wgt id='1155'> +2.8827639e+11 </wgt>
<wgt id='1156'> +2.7649077e+11 </wgt>
<wgt id='1157'> +2.7679132e+11 </wgt>
<wgt id='1158'> +2.7768165e+11 </wgt>
<wgt id='1159'> +2.9604261e+11 </wgt>
<wgt id='1160'> +2.8146533e+11 </wgt>
<wgt id='1161'> +2.8556844e+11 </wgt>
<wgt id='1162'> +2.7585899e+11 </wgt>
<wgt id='1163'> +2.8691190e+11 </wgt>
<wgt id='1164'> +2.6752340e+11 </wgt>
<wgt id='1165'> +2.7947324e+11 </wgt>
<wgt id='1166'> +2.8513143e+11 </wgt>
<wgt id='1167'> +2.8004544e+11 </wgt>
<wgt id='1168'> +2.7663167e+11 </wgt>
<wgt id='1169'> +2.7600528e+11 </wgt>
<wgt id='1170'> +2.7563835e+11 </wgt>
<wgt id='1171'> +2.7352698e+11 </wgt>
<wgt id='1172'> +2.7766083e+11 </wgt>
<wgt id='1173'> +2.8813424e+11 </wgt>
<wgt id='1174'> +2.7980360e+11 </wgt>
<wgt id='1175'> +2.7511398e+11 </wgt>
<wgt id='1176'> +2.8639336e+11 </wgt>
<wgt id='1177'> +2.7935622e+11 </wgt>
<wgt id='1178'> +2.8318241e+11 </wgt>
<wgt id='1179'> +2.8022896e+11 </wgt>
<wgt id='1180'> +2.8329211e+11 </wgt>
<wgt id='1181'> +2.7577526e+11 </wgt>
<wgt id='1182'> +2.8174813e+11 </wgt>
<wgt id='1183'> +2.9597694e+11 </wgt>
<wgt id='1184'> +2.7558613e+11 </wgt>
<wgt id='1185'> +2.8006378e+11 </wgt>
<wgt id='1186'> +2.7143584e+11 </wgt>
<wgt id='1187'> +2.8583609e+11 </wgt>
<wgt id='1188'> +2.7633820e+11 </wgt>
<wgt id='1189'> +2.8577552e+11 </wgt>
<wgt id='1190'> +2.8437062e+11 </wgt>
<wgt id='1191'> +2.9540771e+11 </wgt>
<wgt id='1192'> +2.9197904e+11 </wgt>
<wgt id='1193'> +2.9554643e+11 </wgt>
<wgt id='1194'> +2.8478748e+11 </wgt>
<wgt id='1195'> +2.8380582e+11 </wgt>
<wgt id='1196'> +2.9241086e+11 </wgt>
<wgt id='1197'> +2.9421356e+11 </wgt>
<wgt id='1198'> +2.7496527e+11 </wgt>
<wgt id='1199'> +2.8162438e+11 </wgt>
<wgt id='1200'> +2.8213190e+11 </wgt>
<wgt id='1201'> +2.7934049e+11 </wgt>
<wgt id='1202'> +2.8874932e+11 </wgt>
<wgt id='1203'> +2.7751615e+11 </wgt>
<wgt id='1204'> +2.8855953e+11 </wgt>
<wgt id='1205'> +2.8522174e+11 </wgt>
<wgt id='1206'> +2.7637864e+11 </wgt>
<wgt id='1207'> +2.9325142e+11 </wgt>
<wgt id='1208'> +2.7298339e+11 </wgt>
<wgt id='1209'> +2.7848349e+11 </wgt>
<wgt id='1210'> +2.8019128e+11 </wgt>
<wgt id='1211'> +2.8571970e+11 </wgt>
<wgt id='1212'> +2.8372999e+11 </wgt>
<wgt id='1213'> +2.9361077e+11 </wgt>
<wgt id='1214'> +2.7570091e+11 </wgt>
<wgt id='1215'> +2.9226553e+11 </wgt>
<wgt id='1216'> +2.8612841e+11 </wgt>
<wgt id='1217'> +2.7590576e+11 </wgt>
<wgt id='1218'> +2.8481484e+11 </wgt>
<wgt id='1219'> +2.9447013e+11 </wgt>
<wgt id='1220'> +2.7700073e+11 </wgt>
<wgt id='1221'> +2.7498233e+11 </wgt>
<wgt id='1222'> +2.8050717e+11 </wgt>
<wgt id='1223'> +2.7259576e+11 </wgt>
<wgt id='1224'> +2.8354929e+11 </wgt>
<wgt id='1225'> +2.8806919e+11 </wgt>
<wgt id='1226'> +2.9085068e+11 </wgt>
<wgt id='1227'> +2.7274576e+11 </wgt>
<wgt id='1228'> +2.8136271e+11 </wgt>
<wgt id='1229'> +3.0288320e+11 </wgt>
<wgt id='1230'> +2.9434696e+11 </wgt>
<wgt id='1231'> +2.7947324e+11 </wgt>
<wgt id='1232'> +2.8924822e+11 </wgt>
<wgt id='1233'> +2.7826350e+11 </wgt>
<wgt id='1234'> +2.7634654e+11 </wgt>
<wgt id='1235'> +3.0321870e+11 </wgt>
<wgt id='1236'> +2.7659887e+11 </wgt>
<wgt id='1237'> +2.8993009e+11 </wgt>
<wgt id='1238'> +2.8994661e+11 </wgt>
<wgt id='1239'> +2.9235421e+11 </wgt>
<wgt id='1240'> +2.8579657e+11 </wgt>
<wgt id='1241'> +2.8193670e+11 </wgt>
<wgt id='1242'> +2.8082488e+11 </wgt>
<wgt id='1243'> +2.8910731e+11 </wgt>
<wgt id='1244'> +2.8115807e+11 </wgt>
<wgt id='1245'> +2.8191770e+11 </wgt>
<wgt id='1246'> +3.0735822e+11 </wgt>
<wgt id='1247'> +2.8385065e+11 </wgt>
<wgt id='1248'> +2.7549242e+11 </wgt>
<wgt id='1249'> +2.7776507e+11 </wgt>
<wgt id='1250'> +2.9211556e+11 </wgt>
<wgt id='1251'> +2.9861304e+11 </wgt>
<wgt id='1252'> +2.8711945e+11 </wgt>
<wgt id='1253'> +2.8510420e+11 </wgt>
<wgt id='1254'> +2.8862093e+11 </wgt>
<wgt id='1255'> +2.9787100e+11 </wgt>
<wgt id='1256'> +2.9496655e+11 </wgt>
<wgt id='1257'> +2.8499981e+11 </wgt>
<wgt id='1258'> +3.0044586e+11 </wgt>
<wgt id='1259'> +2.9453919e+11 </wgt>
<wgt id='1260'> +3.2545696e+11 </wgt>
<wgt id='1261'> +3.1373756e+11 </wgt>
<wgt id='1262'> +2.8950676e+11 </wgt>
<wgt id='1263'> +2.9661273e+11 </wgt>
<wgt id='1264'> +2.9838854e+11 </wgt>
<wgt id='1265'> +2.9878338e+11 </wgt>
<wgt id='1266'> +2.9412977e+11 </wgt>
<wgt id='1267'> +3.1463921e+11 </wgt>
<wgt id='1268'> +2.9429626e+11 </wgt>
<wgt id='1269'> +2.8717196e+11 </wgt>
<wgt id='1270'> +2.9096886e+11 </wgt>
<wgt id='1271'> +2.7971677e+11 </wgt>
<wgt id='1272'> +2.9331770e+11 </wgt>
<wgt id='1273'> +2.9191759e+11 </wgt>
<wgt id='1274'> +2.8767971e+11 </wgt>
<wgt id='1275'> +2.9858880e+11 </wgt>
<wgt id='1276'> +2.9528563e+11 </wgt>
<wgt id='1277'> +2.9066711e+11 </wgt>
<wgt id='1278'> +2.8600519e+11 </wgt>
<wgt id='1279'> +2.8120828e+11 </wgt>
<wgt id='1280'> +2.9412671e+11 </wgt>
<wgt id='1281'> +2.8583405e+11 </wgt>
<wgt id='1282'> +2.9660741e+11 </wgt>
<wgt id='1283'> +2.9590113e+11 </wgt>
<wgt id='1284'> +3.1490016e+11 </wgt>
<wgt id='1285'> +3.0816286e+11 </wgt>
<wgt id='1286'> +3.2862566e+11 </wgt>
<wgt id='1287'> +3.0322306e+11 </wgt>
<wgt id='1288'> +3.2338602e+11 </wgt>
<wgt id='1289'> +3.1293318e+11 </wgt>
<wgt id='1290'> +3.1134424e+11 </wgt>
<wgt id='1291'> +2.7787198e+11 </wgt>
<wgt id='1292'> +2.9723640e+11 </wgt>
<wgt id='1293'> +3.0000962e+11 </wgt>
<wgt id='1294'> +3.1419570e+11 </wgt>
<wgt id='1295'> +2.9764806e+11 </wgt>
<wgt id='1296'> +3.1504605e+11 </wgt>
<wgt id='1297'> +2.9557230e+11 </wgt>
<wgt id='1298'> +2.8774435e+11 </wgt>
<wgt id='1299'> +2.9839494e+11 </wgt>
<wgt id='1300'> +2.8792828e+11 </wgt>
<wgt id='1301'> +2.8102861e+11 </wgt>
<wgt id='1302'> +2.7519358e+11 </wgt>
<wgt id='1303'> +2.9825505e+11 </wgt>
<wgt id='1304'> +3.0553860e+11 </wgt>
<wgt id='1305'> +2.9826885e+11 </wgt>
<wgt id='1306'> +3.0512029e+11 </wgt>
<wgt id='1307'> +3.0403873e+11 </wgt>
<wgt id='1308'> +3.2514999e+11 </wgt>
<wgt id='1309'> +2.9564410e+11 </wgt>
<wgt id='1310'> +3.0213213e+11 </wgt>
<wgt id='1311'> +3.0818346e+11 </wgt>
<wgt id='1312'> +2.9887479e+11 </wgt>
<wgt id='1313'> +2.9667500e+11 </wgt>
<wgt id='1314'> +3.0437195e+11 </wgt>
<wgt id='1315'> +2.8476492e+11 </wgt>
<wgt id='1316'> +2.9841464e+11 </wgt>
<wgt id='1317'> +3.0110984e+11 </wgt>
<wgt id='1318'> +2.8599873e+11 </wgt>
<wgt id='1319'> +3.0805210e+11 </wgt>
<wgt id='1320'> +3.0879107e+11 </wgt>
<wgt id='1321'> +2.9362340e+11 </wgt>
<wgt id='1322'> +2.9773536e+11 </wgt>
<wgt id='1323'> +2.9876515e+11 </wgt>
<wgt id='1324'> +3.0112994e+11 </wgt>
<wgt id='1325'> +3.1084020e+11 </wgt>
<wgt id='1326'> +3.0258170e+11 </wgt>
<wgt id='1327'> +2.9297686e+11 </wgt>
<wgt id='1328'> +3.0284225e+11 </wgt>
<wgt id='1329'> +2.9768145e+11 </wgt>
<wgt id='1330'> +2.9081508e+11 </wgt>
<wgt id='1331'> +3.1908720e+11 </wgt>
<wgt id='1332'> +2.8577095e+11 </wgt>
<wgt id='1333'> +3.0041513e+11 </wgt>
<wgt id='1334'> +3.1379800e+11 </wgt>
<wgt id='1335'> +2.9242172e+11 </wgt>
<wgt id='1336'> +3.0190995e+11 </wgt>
<wgt id='1337'> +3.0841451e+11 </wgt>
<wgt id='1338'> +2.8982769e+11 </wgt>
<wgt id='1339'> +3.2038588e+11 </wgt>
<wgt id='1340'> +3.0151012e+11 </wgt>
<wgt id='1341'> +3.0445014e+11 </wgt>
<wgt id='1342'> +3.1589597e+11 </wgt>
<wgt id='1343'> +3.1027522e+11 </wgt>
<wgt id='1344'> +3.0292935e+11 </wgt>
<wgt id='1345'> +2.8040699e+11 </wgt>
<wgt id='1346'> +2.9933868e+11 </wgt>
<wgt id='1347'> +2.8664055e+11 </wgt>
<wgt id='1348'> +2.8790736e+11 </wgt>
<wgt id='1349'> +2.8994728e+11 </wgt>
<wgt id='1350'> +3.0023392e+11 </wgt>
<wgt id='1351'> +2.9687962e+11 </wgt>
<wgt id='1352'> +3.0033449e+11 </wgt>
<wgt id='1353'> +2.9702289e+11 </wgt>
<wgt id='1354'> +3.0681212e+11 </wgt>
<wgt id='1355'> +2.7540606e+11 </wgt>
<wgt id='1356'> +2.7816325e+11 </wgt>
<wgt id='1357'> +2.7632841e+11 </wgt>
<wgt id='1358'> +2.7279480e+11 </wgt>
<wgt id='1359'> +2.7619306e+11 </wgt>
<wgt id='1360'> +2.6855746e+11 </wgt>
<wgt id='1361'> +2.7548498e+11 </wgt>
<wgt id='1362'> +2.7706974e+11 </wgt>
<wgt id='1363'> +2.6917859e+11 </wgt>
<wgt id='1364'> +2.8174986e+11 </wgt>
<wgt id='1365'> +2.7307293e+11 </wgt>
<wgt id='1366'> +2.7567760e+11 </wgt>
<wgt id='1367'> +2.7627302e+11 </wgt>
<wgt id='1368'> +2.7543066e+11 </wgt>
<wgt id='1369'> +2.7980849e+11 </wgt>
<wgt id='1370'> +2.7352818e+11 </wgt>
<wgt id='1371'> +2.7296373e+11 </wgt>
<wgt id='1372'> +2.7998170e+11 </wgt>
<wgt id='1373'> +2.7907521e+11 </wgt>
<wgt id='1374'> +2.6730729e+11 </wgt>
<wgt id='1375'> +2.7422586e+11 </wgt>
<wgt id='1376'> +2.7636396e+11 </wgt>
<wgt id='1377'> +2.7527973e+11 </wgt>
<wgt id='1378'> +2.7109527e+11 </wgt>
<wgt id='1379'> +2.7387433e+11 </wgt>
<wgt id='1380'> +2.7386768e+11 </wgt>
<wgt id='1381'> +2.8073364e+11 </wgt>
<wgt id='1382'> +2.7505499e+11 </wgt>
<wgt id='1383'> +2.7544980e+11 </wgt>
<wgt id='1384'> +2.7382167e+11 </wgt>
<wgt id='1385'> +2.7403275e+11 </wgt>
<wgt id='1386'> +2.7746487e+11 </wgt>
<wgt id='1387'> +2.7443449e+11 </wgt>
<wgt id='1388'> +2.7174938e+11 </wgt>
<wgt id='1389'> +2.7366258e+11 </wgt>
<wgt id='1390'> +2.7424257e+11 </wgt>
<wgt id='1391'> +2.7314353e+11 </wgt>
<wgt id='1392'> +2.7325465e+11 </wgt>
<wgt id='1393'> +2.7331017e+11 </wgt>
<wgt id='1394'> +2.7308362e+11 </wgt>
<wgt id='1395'> +2.7117675e+11 </wgt>
<wgt id='1396'> +2.7646858e+11 </wgt>
<wgt id='1397'> +2.7599147e+11 </wgt>
<wgt id='1398'> +2.7598976e+11 </wgt>
<wgt id='1399'> +2.7094823e+11 </wgt>
<wgt id='1400'> +2.7252135e+11 </wgt>
<wgt id='1401'> +2.7383176e+11 </wgt>
<wgt id='1402'> +2.7867819e+11 </wgt>
<wgt id='1403'> +2.7838699e+11 </wgt>
<wgt id='1404'> +2.7305496e+11 </wgt>
<wgt id='1405'> +2.8151788e+11 </wgt>
<wgt id='1406'> +2.7508342e+11 </wgt>
<wgt id='1407'> +2.7613621e+11 </wgt>
<wgt id='1408'> +2.7852142e+11 </wgt>
<wgt id='1409'> +2.7337995e+11 </wgt>
<wgt id='1410'> +2.7328199e+11 </wgt>
<wgt id='1411'> +2.7508634e+11 </wgt>
<wgt id='1412'> +2.7434628e+11 </wgt>
<wgt id='1413'> +2.7230157e+11 </wgt>
<wgt id='1414'> +2.7706921e+11 </wgt>
<wgt id='1415'> +2.8129432e+11 </wgt>
<wgt id='1416'> +2.7858232e+11 </wgt>
<wgt id='1417'> +2.6858420e+11 </wgt>
<wgt id='1418'> +2.7713532e+11 </wgt>
<wgt id='1419'> +2.7891722e+11 </wgt>
<wgt id='1420'> +2.7466529e+11 </wgt>
<wgt id='1421'> +2.8145893e+11 </wgt>
<wgt id='1422'> +2.6777804e+11 </wgt>
<wgt id='1423'> +2.8066383e+11 </wgt>
<wgt id='1424'> +2.7640291e+11 </wgt>
<wgt id='1425'> +2.7558969e+11 </wgt>
<wgt id='1426'> +2.7903184e+11 </wgt>
<wgt id='1427'> +2.7538294e+11 </wgt>
<wgt id='1428'> +2.7527692e+11 </wgt>
<wgt id='1429'> +2.7109422e+11 </wgt>
<wgt id='1430'> +2.7062732e+11 </wgt>
<wgt id='1431'> +2.7074878e+11 </wgt>
<wgt id='1432'> +2.7743695e+11 </wgt>
<wgt id='1433'> +2.7614902e+11 </wgt>
<wgt id='1434'> +2.8203586e+11 </wgt>
<wgt id='1435'> +2.7455704e+11 </wgt>
<wgt id='1436'> +2.7960870e+11 </wgt>
<wgt id='1437'> +2.7821354e+11 </wgt>
<wgt id='1438'> +2.7338560e+11 </wgt>
<wgt id='1439'> +2.7599757e+11 </wgt>
<wgt id='1440'> +2.8008239e+11 </wgt>
<wgt id='1441'> +2.7542437e+11 </wgt>
<wgt id='1442'> +2.8316696e+11 </wgt>
<wgt id='1443'> +2.7360151e+11 </wgt>
<wgt id='1444'> +2.7357387e+11 </wgt>
<wgt id='1445'> +2.7845574e+11 </wgt>
<wgt id='1446'> +2.7750438e+11 </wgt>
<wgt id='1447'> +2.7134341e+11 </wgt>
<wgt id='1448'> +2.7775924e+11 </wgt>
<wgt id='1449'> +2.7667550e+11 </wgt>
<wgt id='1450'> +2.7346376e+11 </wgt>
<wgt id='1451'> +2.7663090e+11 </wgt>
<wgt id='1452'> +2.7865206e+11 </wgt>
<wgt id='1453'> +2.8062826e+11 </wgt>
<wgt id='1454'> +2.6882971e+11 </wgt>
<wgt id='1455'> +2.7466069e+11 </wgt>
<wgt id='1456'> +2.7465047e+11 </wgt>
<wgt id='1457'> +2.7417746e+11 </wgt>
<wgt id='1458'> +2.7719437e+11 </wgt>
<wgt id='1459'> +3.0510313e+11 </wgt>
<wgt id='1460'> +3.0042912e+11 </wgt>
<wgt id='1461'> +3.4719801e+11 </wgt>
<wgt id='1462'> +2.9973572e+11 </wgt>
<wgt id='1463'> +2.9998666e+11 </wgt>
<wgt id='1464'> +2.9941390e+11 </wgt>
<wgt id='1465'> +2.9979697e+11 </wgt>
<wgt id='1466'> +2.9967976e+11 </wgt>
<wgt id='1467'> +2.9990039e+11 </wgt>
<wgt id='1468'> +2.9946556e+11 </wgt>
<wgt id='1469'> +2.9928444e+11 </wgt>
<wgt id='1470'> +3.0010225e+11 </wgt>
<wgt id='1471'> +3.0021549e+11 </wgt>
<wgt id='1472'> +2.9924158e+11 </wgt>
<wgt id='1473'> +3.0088504e+11 </wgt>
<wgt id='1474'> +2.9863181e+11 </wgt>
<wgt id='1475'> +3.0083322e+11 </wgt>
<wgt id='1476'> +2.9895760e+11 </wgt>
<wgt id='1477'> +2.9916111e+11 </wgt>
<wgt id='1478'> +3.0107794e+11 </wgt>
<wgt id='1479'> +2.9915213e+11 </wgt>
<wgt id='1480'> +3.0014295e+11 </wgt>
<wgt id='1481'> +2.9931724e+11 </wgt>
<wgt id='1482'> +3.0029999e+11 </wgt>
<wgt id='1483'> +2.9983467e+11 </wgt>
<wgt id='1484'> +2.9959513e+11 </wgt>
<wgt id='1485'> +2.9993626e+11 </wgt>
<wgt id='1486'> +2.9925278e+11 </wgt>
<wgt id='1487'> +2.9998290e+11 </wgt>
<wgt id='1488'> +2.9942464e+11 </wgt>
<wgt id='1489'> +2.9938499e+11 </wgt>
<wgt id='1490'> +3.0068651e+11 </wgt>
<wgt id='1491'> +3.0465529e+11 </wgt>
<wgt id='1492'> +2.9698964e+11 </wgt>
<wgt id='1493'> +2.9624209e+11 </wgt>
<wgt id='1494'> +3.1068425e+11 </wgt>
<wgt id='1495'> +2.9910705e+11 </wgt>
<wgt id='1496'> +3.0040998e+11 </wgt>
<wgt id='1497'> +2.9993463e+11 </wgt>
<wgt id='1498'> +2.9946387e+11 </wgt>
<wgt id='1499'> +3.0159811e+11 </wgt>
<wgt id='1500'> +2.9871679e+11 </wgt>
<wgt id='1501'> +3.0020349e+11 </wgt>
<wgt id='1502'> +2.9849591e+11 </wgt>
<wgt id='1503'> +2.9662894e+11 </wgt>
<wgt id='1504'> +3.0302556e+11 </wgt>
<wgt id='1505'> +3.0077362e+11 </wgt>
<wgt id='1506'> +2.9873993e+11 </wgt>
<wgt id='1507'> +3.0098006e+11 </wgt>
<wgt id='1508'> +2.9913679e+11 </wgt>
<wgt id='1509'> +3.0030323e+11 </wgt>
<wgt id='1510'> +2.9730049e+11 </wgt>
<wgt id='1511'> +3.0083880e+11 </wgt>
<wgt id='1512'> +2.9942658e+11 </wgt>
<wgt id='1513'> +2.9965803e+11 </wgt>
<wgt id='1514'> +2.9980473e+11 </wgt>
<wgt id='1515'> +3.0210543e+11 </wgt>
<wgt id='1516'> +3.0022117e+11 </wgt>
<wgt id='1517'> +2.9936761e+11 </wgt>
<wgt id='1518'> +3.0003071e+11 </wgt>
<wgt id='1519'> +2.9812109e+11 </wgt>
<wgt id='1520'> +3.0088512e+11 </wgt>
<wgt id='1521'> +2.9898439e+11 </wgt>
<wgt id='1522'> +3.0018822e+11 </wgt>
<wgt id='1523'> +3.0111028e+11 </wgt>
<wgt id='1524'> +3.0107906e+11 </wgt>
<wgt id='1525'> +3.0099199e+11 </wgt>
<wgt id='1526'> +3.0049181e+11 </wgt>
<wgt id='1527'> +2.9973572e+11 </wgt>
<wgt id='1528'> +2.9958524e+11 </wgt>
<wgt id='1529'> +2.9935189e+11 </wgt>
<wgt id='1530'> +2.9558103e+11 </wgt>
<wgt id='1531'> +2.9659300e+11 </wgt>
<wgt id='1532'> +2.9420362e+11 </wgt>
<wgt id='1533'> +2.9222425e+11 </wgt>
<wgt id='1534'> +2.9498050e+11 </wgt>
<wgt id='1535'> +2.9906530e+11 </wgt>
<wgt id='1536'> +2.9349535e+11 </wgt>
<wgt id='1537'> +2.9648077e+11 </wgt>
<wgt id='1538'> +2.9342864e+11 </wgt>
<wgt id='1539'> +3.0284768e+11 </wgt>
<wgt id='1540'> +2.9571022e+11 </wgt>
<wgt id='1541'> +2.9666146e+11 </wgt>
<wgt id='1542'> +2.9649051e+11 </wgt>
<wgt id='1543'> +2.9760971e+11 </wgt>
<wgt id='1544'> +2.9469292e+11 </wgt>
<wgt id='1545'> +2.9463949e+11 </wgt>
<wgt id='1546'> +2.9269975e+11 </wgt>
<wgt id='1547'> +2.9888352e+11 </wgt>
<wgt id='1548'> +2.9457581e+11 </wgt>
<wgt id='1549'> +2.9326750e+11 </wgt>
<wgt id='1550'> +2.9717220e+11 </wgt>
<wgt id='1551'> +2.9724342e+11 </wgt>
<wgt id='1552'> +2.9589847e+11 </wgt>
<wgt id='1553'> +2.9836359e+11 </wgt>
<wgt id='1554'> +2.9643116e+11 </wgt>
<wgt id='1555'> +2.9718767e+11 </wgt>
<wgt id='1556'> +2.9894916e+11 </wgt>
<wgt id='1557'> +2.9592186e+11 </wgt>
<wgt id='1558'> +2.9656276e+11 </wgt>
<wgt id='1559'> +2.9458416e+11 </wgt>
<wgt id='1560'> +2.9538244e+11 </wgt>
<wgt id='1561'> +2.9260957e+11 </wgt>
<wgt id='1562'> +2.9514847e+11 </wgt>
<wgt id='1563'> +2.9650766e+11 </wgt>
<wgt id='1564'> +2.9621560e+11 </wgt>
<wgt id='1565'> +2.9879347e+11 </wgt>
<wgt id='1566'> +2.9690705e+11 </wgt>
<wgt id='1567'> +3.0016523e+11 </wgt>
<wgt id='1568'> +2.9653826e+11 </wgt>
<wgt id='1569'> +2.9623135e+11 </wgt>
<wgt id='1570'> +2.9794980e+11 </wgt>
<wgt id='1571'> +2.9639092e+11 </wgt>
<wgt id='1572'> +2.9827216e+11 </wgt>
<wgt id='1573'> +2.9934726e+11 </wgt>
<wgt id='1574'> +2.6343572e+11 </wgt>
<wgt id='1575'> +2.6350760e+11 </wgt>
<wgt id='1576'> +2.6336817e+11 </wgt>
<wgt id='1577'> +2.6345391e+11 </wgt>
<wgt id='1578'> +2.6404283e+11 </wgt>
<wgt id='1579'> +2.6430286e+11 </wgt>
<wgt id='1580'> +2.6407489e+11 </wgt>
<wgt id='1581'> +2.6280737e+11 </wgt>
<wgt id='1582'> +2.6249964e+11 </wgt>
<wgt id='1583'> +2.6300114e+11 </wgt>
<wgt id='1584'> +2.6401141e+11 </wgt>
<wgt id='1585'> +2.6362272e+11 </wgt>
<wgt id='1586'> +2.6240900e+11 </wgt>
<wgt id='1587'> +2.6266628e+11 </wgt>
<wgt id='1588'> +2.6216266e+11 </wgt>
<wgt id='1589'> +2.6318859e+11 </wgt>
<wgt id='1590'> +2.6324637e+11 </wgt>
<wgt id='1591'> +2.6350289e+11 </wgt>
<wgt id='1592'> +2.6240474e+11 </wgt>
<wgt id='1593'> +2.6257705e+11 </wgt>
<wgt id='1594'> +2.6424198e+11 </wgt>
<wgt id='1595'> +2.6121677e+11 </wgt>
<wgt id='1596'> +2.6699275e+11 </wgt>
<wgt id='1597'> +2.6516228e+11 </wgt>
<wgt id='1598'> +2.6539171e+11 </wgt>
<wgt id='1599'> +2.6070635e+11 </wgt>
<wgt id='1600'> +2.6784034e+11 </wgt>
<wgt id='1601'> +2.6557669e+11 </wgt>
<wgt id='1602'> +2.6349299e+11 </wgt>
<wgt id='1603'> +2.7372454e+11 </wgt>
<wgt id='1604'> +2.6352057e+11 </wgt>
</rwgt>
</event>
<event>
 9      1 +2.8343000e+11 1.40000000e+03 7.81738600e-03 7.88881200e-02
       21 -1    0    0  504  503 +0.0000000000e+00 +0.0000000000e+00 +2.4355362425e+03 2.4355362425e+03 0.0000000000e+00 0.0000e+00 -1.0000e+00
       21 -1    0    0  503  504 -0.0000000000e+00 -0.0000000000e+00 -2.0118762409e+02 2.0118762409e+02 0.0000000000e+00 0.0000e+00 -1.0000e+00
       45  2    1    2    0    0 +0.0000000000e+00 +0.0000000000e+00 +2.2343486185e+03 2.6367238666e+03 1.3999996429e+03 0.0000e+00 0.0000e+00
       25  2    3    3    0    0 +5.9129628322e+02 -3.0757411873e+02 +7.7464034361e+02 1.0295271095e+03 1.2500109645e+02 0.0000e+00 0.0000e+00
       35  2    3    3    0    0 -5.9129628322e+02 +3.0757411873e+02 +1.4597082748e+03 1.6071967572e+03 9.0000197365e+01 0.0000e+00 0.0000e+00
        5  1    5    5  501    0 -4.3400412403e+02 +2.6502326363e+02 +1.0664046091e+03 1.1814539593e+03 4.2140000000e+00 0.0000e+00 1.0000e+00
       -5  1    5    5    0  501 -1.5729215919e+02 +4.2550855104e+01 +3.9330366578e+02 4.2574279785e+02 4.2140000000e+00 0.0000e+00 1.0000e+00
        5  1    4    4  502    0 +4.5825375388e+00 +5.2388558435e+00 +3.0675914975e+01 3.1736647845e+01 4.2140000000e+00 0.0000e+00 -1.0000e+00
       -5  1    4    4    0  502 +5.8671374568e+02 -3.1281297458e+02 +7.4396442864e+02 9.9779046163e+02 4.2140000000e+00 0.0000e+00 -1.0000e+00
<mgrwt>
<rscale>  0 0.13999996E+04</rscale>
<asrwt>0</asrwt>
<pdfrwt beam="1">  1       21 0.37469786E+00 0.13999996E+04</pdfrwt>
<pdfrwt beam="2">  1       21 0.30951944E-01 0.13999996E+04</pdfrwt>
<totfact> 0.68532590E+01</totfact>
</mgrwt>
<rwgt>
<wgt id='1001'> +2.8343000e+11 </wgt>
<wgt id='1002'> +2.8569924e+11 </wgt>
<wgt id='1003'> +2.8565058e+11 </wgt>
<wgt id='1004'> +3.2805420e+11 </wgt>
<wgt id='1005'> +2.8343000e+11 </wgt>
<wgt id='1006'> +2.8343000e+11 </wgt>
<wgt id='1007'> +2.8569924e+11 </wgt>
<wgt id='1008'> +2.8565058e+11 </wgt>
<wgt id='1009'> +3.2805420e+11 </wgt>
<wgt id='1010'> +2.8343000e+11 </wgt>
<wgt id='1011'> +2.8343000e+11 </wgt>
<wgt id='1012'> +2.8569924e+11 </wgt>
<wgt id='1013'> +2.8565058e+11 </wgt>
<wgt id='1014'> +3.2805420e+11 </wgt>
<wgt id='1015'> +2.8343000e+11 </wgt>
<wgt id='1016'> +2.4907045e+11 </wgt>
<wgt id='1017'> +2.5093636e+11 </wgt>
<wgt id='1018'> +2.5089636e+11 </wgt>
<wgt id='1019'> +2.8565058e+11 </wgt>
<wgt id='1020'> +2.4907045e+11 </wgt>
<wgt id='1021'> +2.4907045e+11 </wgt>
<wgt id='1022'> +2.5093636e+11 </wgt>
<wgt id='1023'> +2.5089636e+11 </wgt>
<wgt id='1024'> +2.8565058e+11 </wgt>
<wgt id='1025'> +2.4907045e+11 </wgt>
<wgt id='1026'> +2.4907045e+11 </wgt>
<wgt id='1027'> +2.5093636e+11 </wgt>
<wgt id='1028'> +2.5089636e+11 </wgt>
<wgt id='1029'> +2.8565058e+11 </wgt>
<wgt id='1030'> +2.4907045e+11 </wgt>
<wgt id='1031'> +3.2533324e+11 </wgt>
<wgt id='1032'> +3.2811384e+11 </wgt>
<wgt id='1033'> +3.2805420e+11 </wgt>
<wgt id='1034'> +3.8049972e+11 </wgt>
<wgt id='1035'> +3.2533323e+11 </wgt>
<wgt id='1036'> +3.2533324e+11 </wgt>
<wgt id='1037'> +3.2811384e+11 </wgt>
<wgt id='1038'> +3.2805420e+11 </wgt>
<wgt id='1039'> +3.8049972e+11 </wgt>
<wgt id='1040'> +3.2533323e+11 </wgt>
<wgt id='1041'> +3.2533324e+11 </wgt>
<wgt id='1042'> +3.2811384e+11 </wgt>
<wgt id='1043'> +3.2805420e+11 </wgt>
<wgt id='1044'> +3.8049972e+11 </wgt>
<wgt id='1045'> +3.2533323e+11 </wgt>
<wgt id='1046'> +2.8343000e+11 </wgt>
<wgt id='1047'> +2.8343000e+11 </wgt>
<wgt id='1048'> +2.8343000e+11 </wgt>
<wgt id='1049'> +2.8288993e+11 </wgt>
<wgt id='1050'> +2.8090224e+11 </wgt>
<wgt id='1051'> +2.8336410e+11 </wgt>
<wgt id='1052'> +2.8318797e+11 </wgt>
<wgt id='1053'> +2.8181479e+11 </wgt>
<wgt id='1054'> +2.8733937e+11 </wgt>
<wgt id='1055'> +2.8174718e+11 </wgt>
<wgt id='1056'> +2.8065140e+11 </wgt>
<wgt id='1057'> +2.8340037e+11 </wgt>
<wgt id='1058'> +2.8453848e+11 </wgt>
<wgt id='1059'> +2.8515779e+11 </wgt>
<wgt id='1060'> +2.8205165e+11 </wgt>
<wgt id='1061'> +2.8484741e+11 </wgt>
<wgt id='1062'> +2.8649906e+11 </wgt>
<wgt id='1063'> +2.8437208e+11 </wgt>
<wgt id='1064'> +2.8718656e+11 </wgt>
<wgt id='1065'> +2.8531969e+11 </wgt>
<wgt id='1066'> +2.8320890e+11 </wgt>
<wgt id='1067'> +2.8374403e+11 </wgt>
<wgt id='1068'> +2.8500568e+11 </wgt>
<wgt id='1069'> +2.8114434e+11 </wgt>
<wgt id='1070'> +2.7939422e+11 </wgt>
<wgt id='1071'> +2.8700662e+11 </wgt>
<wgt id='1072'> +2.7566737e+11 </wgt>
<wgt id='1073'> +2.8598871e+11 </wgt>
<wgt id='1074'> +2.8514193e+11 </wgt>
<wgt id='1075'> +2.8047563e+11 </wgt>
<wgt id='1076'> +2.8560425e+11 </wgt>
<wgt id='1077'> +2.8038367e+11 </wgt>
<wgt id='1078'> +2.7574933e+11 </wgt>
<wgt id='1079'> +2.8513088e+11 </wgt>
<wgt id='1080'> +2.8672044e+11 </wgt>
<wgt id='1081'> +2.8435741e+11 </wgt>
<wgt id='1082'> +2.8153768e+11 </wgt>
<wgt id='1083'> +2.8270317e+11 </wgt>
<wgt id='1084'> +2.8562334e+11 </wgt>
<wgt id='1085'> +2.8193495e+11 </wgt>
<wgt id='1086'> +2.8588578e+11 </wgt>
<wgt id='1087'> +2.8500327e+11 </wgt>
<wgt id='1088'> +2.8373510e+11 </wgt>
<wgt id='1089'> +2.8235205e+11 </wgt>
<wgt id='1090'> +2.8450590e+11 </wgt>
<wgt id='1091'> +2.8357212e+11 </wgt>
<wgt id='1092'> +2.8295677e+11 </wgt>
<wgt id='1093'> +2.8212326e+11 </wgt>
<wgt id='1094'> +2.8056484e+11 </wgt>
<wgt id='1095'> +2.8362988e+11 </wgt>
<wgt id='1096'> +2.8443575e+11 </wgt>
<wgt id='1097'> +2.8293871e+11 </wgt>
<wgt id='1098'> +2.8408249e+11 </wgt>
<wgt id='1099'> +2.8424967e+11 </wgt>
<wgt id='1100'> +2.8343936e+11 </wgt>
<wgt id='1101'> +2.8368955e+11 </wgt>
<wgt id='1102'> +2.8303177e+11 </wgt>
<wgt id='1103'> +2.8020631e+11 </wgt>
<wgt id='1104'> +2.8393581e+11 </wgt>
<wgt id='1105'> +2.8400919e+11 </wgt>
<wgt id='1106'> +2.8404036e+11 </wgt>
<wgt id='1107'> +2.8424098e+11 </wgt>
<wgt id='1108'> +2.8304186e+11 </wgt>
<wgt id='1109'> +2.8428688e+11 </wgt>
<wgt id='1110'> +2.8312154e+11 </wgt>
<wgt id='1111'> +2.8591381e+11 </wgt>
<wgt id='1112'> +2.8251432e+11 </wgt>
<wgt id='1113'> +2.8354181e+11 </wgt>
<wgt id='1114'> +2.8304676e+11 </wgt>
<wgt id='1115'> +2.8096962e+11 </wgt>
<wgt id='1116'> +2.8502129e+11 </wgt>
<wgt id='1117'> +2.8282397e+11 </wgt>
<wgt id='1118'> +2.8529557e+11 </wgt>
<wgt id='1119'> +2.8192651e+11 </wgt>
<wgt id='1120'> +2.8118076e+11 </wgt>
<wgt id='1121'> +2.8290397e+11 </wgt>
<wgt id='1122'> +2.8209118e+11 </wgt>
<wgt id='1123'> +2.8348900e+11 </wgt>
<wgt id='1124'> +2.8443829e+11 </wgt>
<wgt id='1125'> +2.8357787e+11 </wgt>
<wgt id='1126'> +2.8360860e+11 </wgt>
<wgt id='1127'> +2.8359966e+11 </wgt>
<wgt id='1128'> +2.8315806e+11 </wgt>
<wgt id='1129'> +2.8262277e+11 </wgt>
<wgt id='1130'> +2.8343351e+11 </wgt>
<wgt id='1131'> +2.8539858e+11 </wgt>
<wgt id='1132'> +2.8288454e+11 </wgt>
<wgt id='1133'> +2.8382205e+11 </wgt>
<wgt id='1134'> +2.8340237e+11 </wgt>
<wgt id='1135'> +2.8366859e+11 </wgt>
<wgt id='1136'> +2.8276450e+11 </wgt>
<wgt id='1137'> +2.8266228e+11 </wgt>
<wgt id='1138'> +2.8360182e+11 </wgt>
<wgt id='1139'> +2.8397594e+11 </wgt>
<wgt id='1140'> +2.8411515e+11 </wgt>
<wgt id='1141'> +2.8272103e+11 </wgt>
<wgt id='1142'> +2.8351343e+11 </wgt>
<wgt id='1143'> +2.8412706e+11 </wgt>
<wgt id='1144'> +2.8342833e+11 </wgt>
<wgt id='1145'> +2.8386804e+11 </wgt>
<wgt id='1146'> +2.8393563e+11 </wgt>
<wgt id='1147'> +2.8360704e+11 </wgt>
<wgt id='1148'> +2.8343000e+11 </wgt>
<wgt id='1149'> +2.8343000e+11 </wgt>
<wgt id='1150'> +2.7904274e+11 </wgt>
<wgt id='1151'> +2.8576307e+11 </wgt>
<wgt id='1152'> +2.9879359e+11 </wgt>
<wgt id='1153'> +2.9146770e+11 </wgt>
<wgt id='1154'> +2.5682633e+11 </wgt>
<wgt id='1155'> +3.0593175e+11 </wgt>
<wgt id='1156'> +2.8879526e+11 </wgt>
<wgt id='1157'> +2.8759737e+11 </wgt>
<wgt id='1158'> +3.0552339e+11 </wgt>
<wgt id='1159'> +2.9688950e+11 </wgt>
<wgt id='1160'> +2.4778094e+11 </wgt>
<wgt id='1161'> +2.9899194e+11 </wgt>
<wgt id='1162'> +2.6906273e+11 </wgt>
<wgt id='1163'> +2.8102762e+11 </wgt>
<wgt id='1164'> +2.4465663e+11 </wgt>
<wgt id='1165'> +2.8622753e+11 </wgt>
<wgt id='1166'> +2.7703614e+11 </wgt>
<wgt id='1167'> +2.7768222e+11 </wgt>
<wgt id='1168'> +2.5067478e+11 </wgt>
<wgt id='1169'> +2.5148904e+11 </wgt>
<wgt id='1170'> +2.8622988e+11 </wgt>
<wgt id='1171'> +2.6296142e+11 </wgt>
<wgt id='1172'> +2.5636662e+11 </wgt>
<wgt id='1173'> +2.8780384e+11 </wgt>
<wgt id='1174'> +2.9013595e+11 </wgt>
<wgt id='1175'> +2.9191121e+11 </wgt>
<wgt id='1176'> +2.9654667e+11 </wgt>
<wgt id='1177'> +3.1178332e+11 </wgt>
<wgt id='1178'> +2.7530068e+11 </wgt>
<wgt id='1179'> +3.0156698e+11 </wgt>
<wgt id='1180'> +3.0623233e+11 </wgt>
<wgt id='1181'> +2.4827940e+11 </wgt>
<wgt id='1182'> +2.6511187e+11 </wgt>
<wgt id='1183'> +2.9916799e+11 </wgt>
<wgt id='1184'> +2.8158492e+11 </wgt>
<wgt id='1185'> +2.8373021e+11 </wgt>
<wgt id='1186'> +2.6677482e+11 </wgt>
<wgt id='1187'> +3.1550177e+11 </wgt>
<wgt id='1188'> +3.0550921e+11 </wgt>
<wgt id='1189'> +3.1334087e+11 </wgt>
<wgt id='1190'> +3.0365465e+11 </wgt>
<wgt id='1191'> +3.2316898e+11 </wgt>
<wgt id='1192'> +2.8901492e+11 </wgt>
<wgt id='1193'> +2.9545421e+11 </wgt>
<wgt id='1194'> +2.6781267e+11 </wgt>
<wgt id='1195'> +2.8574703e+11 </wgt>
<wgt id='1196'> +2.6073314e+11 </wgt>
<wgt id='1197'> +2.8699520e+11 </wgt>
<wgt id='1198'> +2.6815566e+11 </wgt>
<wgt id='1199'> +3.0775595e+11 </wgt>
<wgt id='1200'> +2.6480390e+11 </wgt>
<wgt id='1201'> +3.1055441e+11 </wgt>
<wgt id='1202'> +2.7453891e+11 </wgt>
<wgt id='1203'> +2.8202113e+11 </wgt>
<wgt id='1204'> +2.5342097e+11 </wgt>
<wgt id='1205'> +3.0377519e+11 </wgt>
<wgt id='1206'> +2.6609768e+11 </wgt>
<wgt id='1207'> +3.0812831e+11 </wgt>
<wgt id='1208'> +2.9757178e+11 </wgt>
<wgt id='1209'> +2.6214934e+11 </wgt>
<wgt id='1210'> +2.9654205e+11 </wgt>
<wgt id='1211'> +3.0039561e+11 </wgt>
<wgt id='1212'> +2.5382146e+11 </wgt>
<wgt id='1213'> +2.7343711e+11 </wgt>
<wgt id='1214'> +2.7553163e+11 </wgt>
<wgt id='1215'> +2.9729473e+11 </wgt>
<wgt id='1216'> +2.7800581e+11 </wgt>
<wgt id='1217'> +2.7707567e+11 </wgt>
<wgt id='1218'> +2.6280256e+11 </wgt>
<wgt id='1219'> +2.7740771e+11 </wgt>
<wgt id='1220'> +2.6253656e+11 </wgt>
<wgt id='1221'> +2.5267853e+11 </wgt>
<wgt id='1222'> +2.6892217e+11 </wgt>
<wgt id='1223'> +2.8225480e+11 </wgt>
<wgt id='1224'> +2.7929853e+11 </wgt>
<wgt id='1225'> +2.6481531e+11 </wgt>
<wgt id='1226'> +2.7715725e+11 </wgt>
<wgt id='1227'> +2.6035776e+11 </wgt>
<wgt id='1228'> +2.4911227e+11 </wgt>
<wgt id='1229'> +2.8882645e+11 </wgt>
<wgt id='1230'> +2.8412233e+11 </wgt>
<wgt id='1231'> +2.8622753e+11 </wgt>
<wgt id='1232'> +2.8436649e+11 </wgt>
<wgt id='1233'> +2.8553045e+11 </wgt>
<wgt id='1234'> +3.0284247e+11 </wgt>
<wgt id='1235'> +3.0867717e+11 </wgt>
<wgt id='1236'> +3.0835514e+11 </wgt>
<wgt id='1237'> +2.9739658e+11 </wgt>
<wgt id='1238'> +3.2176183e+11 </wgt>
<wgt id='1239'> +3.0422094e+11 </wgt>
<wgt id='1240'> +3.0947868e+11 </wgt>
<wgt id='1241'> +2.6274955e+11 </wgt>
<wgt id='1242'> +2.8962620e+11 </wgt>
<wgt id='1243'> +2.6119370e+11 </wgt>
<wgt id='1244'> +2.8877645e+11 </wgt>
<wgt id='1245'> +3.0096630e+11 </wgt>
<wgt id='1246'> +3.0733281e+11 </wgt>
<wgt id='1247'> +2.6813039e+11 </wgt>
<wgt id='1248'> +2.7608380e+11 </wgt>
<wgt id='1249'> +2.7939332e+11 </wgt>
<wgt id='1250'> +2.9815799e+11 </wgt>
<wgt id='1251'> +3.1546291e+11 </wgt>
<wgt id='1252'> +2.8031858e+11 </wgt>
<wgt id='1253'> +3.2667828e+11 </wgt>
<wgt id='1254'> +2.9182079e+11 </wgt>
<wgt id='1255'> +3.1653936e+11 </wgt>
<wgt id='1256'> +3.2404182e+11 </wgt>
<wgt id='1257'> +2.6124400e+11 </wgt>
<wgt id='1258'> +3.0598590e+11 </wgt>
<wgt id='1259'> +3.4435615e+11 </wgt>
<wgt id='1260'> +3.8976590e+11 </wgt>
<wgt id='1261'> +3.9001398e+11 </wgt>
<wgt id='1262'> +3.1359803e+11 </wgt>
<wgt id='1263'> +3.2037542e+11 </wgt>
<wgt id='1264'> +3.0049718e+11 </wgt>
<wgt id='1265'> +2.6902495e+11 </wgt>
<wgt id='1266'> +2.9344347e+11 </wgt>
<wgt id='1267'> +4.5593019e+11 </wgt>
<wgt id='1268'> +2.6151601e+11 </wgt>
<wgt id='1269'> +2.5722745e+11 </wgt>
<wgt id='1270'> +3.4471226e+11 </wgt>
<wgt id='1271'> +1.9934513e+11 </wgt>
<wgt id='1272'> +3.0119977e+11 </wgt>
<wgt id='1273'> +2.9453842e+11 </wgt>
<wgt id='1274'> +3.0345420e+11 </wgt>
<wgt id='1275'> +2.8834472e+11 </wgt>
<wgt id='1276'> +3.2863143e+11 </wgt>
<wgt id='1277'> +3.6237406e+11 </wgt>
<wgt id='1278'> +3.2666501e+11 </wgt>
<wgt id='1279'> +2.6127038e+11 </wgt>
<wgt id='1280'> +3.4993016e+11 </wgt>
<wgt id='1281'> +2.7657040e+11 </wgt>
<wgt id='1282'> +2.8447027e+11 </wgt>
<wgt id='1283'> +3.4743279e+11 </wgt>
<wgt id='1284'> +2.7853823e+11 </wgt>
<wgt id='1285'> +2.5830278e+11 </wgt>
<wgt id='1286'> +4.0028695e+11 </wgt>
<wgt id='1287'> +4.1284363e+11 </wgt>
<wgt id='1288'> +4.4862490e+11 </wgt>
<wgt id='1289'> +3.5287000e+11 </wgt>
<wgt id='1290'> +3.2546059e+11 </wgt>
<wgt id='1291'> +2.9039564e+11 </wgt>
<wgt id='1292'> +3.1967430e+11 </wgt>
<wgt id='1293'> +3.0072374e+11 </wgt>
<wgt id='1294'> +4.2886114e+11 </wgt>
<wgt id='1295'> +3.2941787e+11 </wgt>
<wgt id='1296'> +4.2261951e+11 </wgt>
<wgt id='1297'> +2.6529810e+11 </wgt>
<wgt id='1298'> +2.9071083e+11 </wgt>
<wgt id='1299'> +3.0575156e+11 </wgt>
<wgt id='1300'> +2.3275465e+11 </wgt>
<wgt id='1301'> +2.3935560e+11 </wgt>
<wgt id='1302'> +2.5550136e+11 </wgt>
<wgt id='1303'> +3.0201150e+11 </wgt>
<wgt id='1304'> +3.8961417e+11 </wgt>
<wgt id='1305'> +2.9048663e+11 </wgt>
<wgt id='1306'> +3.0221997e+11 </wgt>
<wgt id='1307'> +2.6582896e+11 </wgt>
<wgt id='1308'> +3.5599898e+11 </wgt>
<wgt id='1309'> +3.2628468e+11 </wgt>
<wgt id='1310'> +3.0432990e+11 </wgt>
<wgt id='1311'> +2.7941178e+11 </wgt>
<wgt id='1312'> +3.8612282e+11 </wgt>
<wgt id='1313'> +3.4909421e+11 </wgt>
<wgt id='1314'> +2.4879420e+11 </wgt>
<wgt id='1315'> +2.5862382e+11 </wgt>
<wgt id='1316'> +2.9733127e+11 </wgt>
<wgt id='1317'> +4.0515149e+11 </wgt>
<wgt id='1318'> +2.8266865e+11 </wgt>
<wgt id='1319'> +2.9365338e+11 </wgt>
<wgt id='1320'> +3.3973507e+11 </wgt>
<wgt id='1321'> +3.3148341e+11 </wgt>
<wgt id='1322'> +3.1845190e+11 </wgt>
<wgt id='1323'> +2.4429712e+11 </wgt>
<wgt id='1324'> +3.3833439e+11 </wgt>
<wgt id='1325'> +3.2682658e+11 </wgt>
<wgt id='1326'> +3.5312261e+11 </wgt>
<wgt id='1327'> +3.4834213e+11 </wgt>
<wgt id='1328'> +3.3782932e+11 </wgt>
<wgt id='1329'> +2.6618002e+11 </wgt>
<wgt id='1330'> +2.5958851e+11 </wgt>
<wgt id='1331'> +3.4114369e+11 </wgt>
<wgt id='1332'> +3.3829950e+11 </wgt>
<wgt id='1333'> +3.0812635e+11 </wgt>
<wgt id='1334'> +3.6551048e+11 </wgt>
<wgt id='1335'> +2.4639980e+11 </wgt>
<wgt id='1336'> +4.0300641e+11 </wgt>
<wgt id='1337'> +3.1744362e+11 </wgt>
<wgt id='1338'> +2.6692240e+11 </wgt>
<wgt id='1339'> +2.7384170e+11 </wgt>
<wgt id='1340'> +3.7259746e+11 </wgt>
<wgt id='1341'> +4.4134263e+11 </wgt>
<wgt id='1342'> +2.6713201e+11 </wgt>
<wgt id='1343'> +3.2545292e+11 </wgt>
<wgt id='1344'> +3.5096105e+11 </wgt>
<wgt id='1345'> +1.8600522e+11 </wgt>
<wgt id='1346'> +2.9834369e+11 </wgt>
<wgt id='1347'> +3.0665802e+11 </wgt>
<wgt id='1348'> +2.5578918e+11 </wgt>
<wgt id='1349'> +2.7079359e+11 </wgt>
<wgt id='1350'> +3.9413923e+11 </wgt>
<wgt id='1351'> +2.8652322e+11 </wgt>
<wgt id='1352'> +3.1968279e+11 </wgt>
<wgt id='1353'> +3.2861895e+11 </wgt>
<wgt id='1354'> +3.2156247e+11 </wgt>
<wgt id='1355'> +2.7670461e+11 </wgt>
<wgt id='1356'> +2.8552040e+11 </wgt>
<wgt id='1357'> +2.8006009e+11 </wgt>
<wgt id='1358'> +2.6544397e+11 </wgt>
<wgt id='1359'> +2.7814871e+11 </wgt>
<wgt id='1360'> +2.6514100e+11 </wgt>
<wgt id='1361'> +2.7780533e+11 </wgt>
<wgt id='1362'> +2.8249356e+11 </wgt>
<wgt id='1363'> +2.6503951e+11 </wgt>
<wgt id='1364'> +3.0685784e+11 </wgt>
<wgt id='1365'> +2.7003495e+11 </wgt>
<wgt id='1366'> +2.8301299e+11 </wgt>
<wgt id='1367'> +2.6865010e+11 </wgt>
<wgt id='1368'> +2.9647821e+11 </wgt>
<wgt id='1369'> +2.7851664e+11 </wgt>
<wgt id='1370'> +2.6041217e+11 </wgt>
<wgt id='1371'> +2.6027547e+11 </wgt>
<wgt id='1372'> +2.6411490e+11 </wgt>
<wgt id='1373'> +2.9881573e+11 </wgt>
<wgt id='1374'> +2.7104849e+11 </wgt>
<wgt id='1375'> +2.8004028e+11 </wgt>
<wgt id='1376'> +2.8092257e+11 </wgt>
<wgt id='1377'> +2.7632532e+11 </wgt>
<wgt id='1378'> +2.8058399e+11 </wgt>
<wgt id='1379'> +2.6753763e+11 </wgt>
<wgt id='1380'> +2.6857758e+11 </wgt>
<wgt id='1381'> +2.8412924e+11 </wgt>
<wgt id='1382'> +2.6125504e+11 </wgt>
<wgt id='1383'> +2.7227304e+11 </wgt>
<wgt id='1384'> +2.5693513e+11 </wgt>
<wgt id='1385'> +2.7444560e+11 </wgt>
<wgt id='1386'> +2.7591509e+11 </wgt>
<wgt id='1387'> +2.8825915e+11 </wgt>
<wgt id='1388'> +2.8041695e+11 </wgt>
<wgt id='1389'> +2.6353239e+11 </wgt>
<wgt id='1390'> +2.7799167e+11 </wgt>
<wgt id='1391'> +2.9757118e+11 </wgt>
<wgt id='1392'> +2.5947012e+11 </wgt>
<wgt id='1393'> +2.8561221e+11 </wgt>
<wgt id='1394'> +2.8875365e+11 </wgt>
<wgt id='1395'> +2.5208796e+11 </wgt>
<wgt id='1396'> +2.7223156e+11 </wgt>
<wgt id='1397'> +2.7307339e+11 </wgt>
<wgt id='1398'> +3.0255936e+11 </wgt>
<wgt id='1399'> +2.6170103e+11 </wgt>
<wgt id='1400'> +2.7359930e+11 </wgt>
<wgt id='1401'> +2.5869020e+11 </wgt>
<wgt id='1402'> +2.8055057e+11 </wgt>
<wgt id='1403'> +2.8842867e+11 </wgt>
<wgt id='1404'> +2.7355071e+11 </wgt>
<wgt id='1405'> +3.0712427e+11 </wgt>
<wgt id='1406'> +2.8843606e+11 </wgt>
<wgt id='1407'> +3.0251590e+11 </wgt>
<wgt id='1408'> +3.0068692e+11 </wgt>
<wgt id='1409'> +2.7302448e+11 </wgt>
<wgt id='1410'> +2.8286107e+11 </wgt>
<wgt id='1411'> +2.7535140e+11 </wgt>
<wgt id='1412'> +3.0272316e+11 </wgt>
<wgt id='1413'> +2.8575703e+11 </wgt>
<wgt id='1414'> +2.8582447e+11 </wgt>
<wgt id='1415'> +2.6717553e+11 </wgt>
<wgt id='1416'> +2.7745103e+11 </wgt>
<wgt id='1417'> +2.5646337e+11 </wgt>
<wgt id='1418'> +2.7078047e+11 </wgt>
<wgt id='1419'> +2.7838795e+11 </wgt>
<wgt id='1420'> +2.5437585e+11 </wgt>
<wgt id='1421'> +2.9451128e+11 </wgt>
<wgt id='1422'> +2.5457977e+11 </wgt>
<wgt id='1423'> +2.7467717e+11 </wgt>
<wgt id='1424'> +2.6530997e+11 </wgt>
<wgt id='1425'> +2.7295727e+11 </wgt>
<wgt id='1426'> +2.8838812e+11 </wgt>
<wgt id='1427'> +2.6622023e+11 </wgt>
<wgt id='1428'> +2.6302084e+11 </wgt>
<wgt id='1429'> +2.7127793e+11 </wgt>
<wgt id='1430'> +2.6447105e+11 </wgt>
<wgt id='1431'> +2.7847518e+11 </wgt>
<wgt id='1432'> +2.6457622e+11 </wgt>
<wgt id='1433'> +2.6863663e+11 </wgt>
<wgt id='1434'> +2.6197414e+11 </wgt>
<wgt id='1435'> +2.8920746e+11 </wgt>
<wgt id='1436'> +2.7251521e+11 </wgt>
<wgt id='1437'> +2.8150699e+11 </wgt>
<wgt id='1438'> +2.7167610e+11 </wgt>
<wgt id='1439'> +2.7924263e+11 </wgt>
<wgt id='1440'> +2.8133590e+11 </wgt>
<wgt id='1441'> +2.7485546e+11 </wgt>
<wgt id='1442'> +2.7848587e+11 </wgt>
<wgt id='1443'> +2.5989945e+11 </wgt>
<wgt id='1444'> +2.8640245e+11 </wgt>
<wgt id='1445'> +2.6676317e+11 </wgt>
<wgt id='1446'> +3.0059290e+11 </wgt>
<wgt id='1447'> +2.9544547e+11 </wgt>
<wgt id='1448'> +2.8223313e+11 </wgt>
<wgt id='1449'> +2.7312240e+11 </wgt>
<wgt id='1450'> +2.6686185e+11 </wgt>
<wgt id='1451'> +2.6203524e+11 </wgt>
<wgt id='1452'> +2.8948282e+11 </wgt>
<wgt id='1453'> +2.9747236e+11 </wgt>
<wgt id='1454'> +2.6657498e+11 </wgt>
<wgt id='1455'> +2.8178021e+11 </wgt>
<wgt id='1456'> +2.6998845e+11 </wgt>
<wgt id='1457'> +2.8348353e+11 </wgt>
<wgt id='1458'> +2.8893831e+11 </wgt>
<wgt id='1459'> +3.0416987e+11 </wgt>
<wgt id='1460'> +2.9785937e+11 </wgt>
<wgt id='1461'> +3.7628632e+11 </wgt>
<wgt id='1462'> +3.3448850e+11 </wgt>
<wgt id='1463'> +3.3471235e+11 </wgt>
<wgt id='1464'> +3.3420137e+11 </wgt>
<wgt id='1465'> +3.3457867e+11 </wgt>
<wgt id='1466'> +3.3440615e+11 </wgt>
<wgt id='1467'> +3.3455318e+11 </wgt>
<wgt id='1468'> +3.3438237e+11 </wgt>
<wgt id='1469'> +3.3398173e+11 </wgt>
<wgt id='1470'> +3.3490001e+11 </wgt>
<wgt id='1471'> +3.3497007e+11 </wgt>
<wgt id='1472'> +3.3399245e+11 </wgt>
<wgt id='1473'> +3.3594089e+11 </wgt>
<wgt id='1474'> +3.3309314e+11 </wgt>
<wgt id='1475'> +3.3574833e+11 </wgt>
<wgt id='1476'> +3.3359617e+11 </wgt>
<wgt id='1477'> +3.3384370e+11 </wgt>
<wgt id='1478'> +3.3599544e+11 </wgt>
<wgt id='1479'> +3.3410408e+11 </wgt>
<wgt id='1480'> +3.3476479e+11 </wgt>
<wgt id='1481'> +3.3329664e+11 </wgt>
<wgt id='1482'> +3.3611190e+11 </wgt>
<wgt id='1483'> +3.3447745e+11 </wgt>
<wgt id='1484'> +3.3451583e+11 </wgt>
<wgt id='1485'> +3.3458262e+11 </wgt>
<wgt id='1486'> +3.3425945e+11 </wgt>
<wgt id='1487'> +3.3454820e+11 </wgt>
<wgt id='1488'> +3.3438208e+11 </wgt>
<wgt id='1489'> +3.3403885e+11 </wgt>
<wgt id='1490'> +3.3570863e+11 </wgt>
<wgt id='1491'> +3.4112535e+11 </wgt>
<wgt id='1492'> +3.3078686e+11 </wgt>
<wgt id='1493'> +3.3005167e+11 </wgt>
<wgt id='1494'> +3.4837358e+11 </wgt>
<wgt id='1495'> +3.3291854e+11 </wgt>
<wgt id='1496'> +3.3618010e+11 </wgt>
<wgt id='1497'> +3.3490516e+11 </wgt>
<wgt id='1498'> +3.3392345e+11 </wgt>
<wgt id='1499'> +3.3797752e+11 </wgt>
<wgt id='1500'> +3.3259443e+11 </wgt>
<wgt id='1501'> +3.3386477e+11 </wgt>
<wgt id='1502'> +3.3623639e+11 </wgt>
<wgt id='1503'> +3.2281451e+11 </wgt>
<wgt id='1504'> +3.4854137e+11 </wgt>
<wgt id='1505'> +3.3383449e+11 </wgt>
<wgt id='1506'> +3.3519557e+11 </wgt>
<wgt id='1507'> +3.4613921e+11 </wgt>
<wgt id='1508'> +3.1140290e+11 </wgt>
<wgt id='1509'> +3.3616608e+11 </wgt>
<wgt id='1510'> +3.2718206e+11 </wgt>
<wgt id='1511'> +3.3473987e+11 </wgt>
<wgt id='1512'> +3.3611141e+11 </wgt>
<wgt id='1513'> +3.3363474e+11 </wgt>
<wgt id='1514'> +3.3541236e+11 </wgt>
<wgt id='1515'> +3.4792226e+11 </wgt>
<wgt id='1516'> +3.2751555e+11 </wgt>
<wgt id='1517'> +3.3267806e+11 </wgt>
<wgt id='1518'> +3.3814199e+11 </wgt>
<wgt id='1519'> +3.3118324e+11 </wgt>
<wgt id='1520'> +3.3681922e+11 </wgt>
<wgt id='1521'> +3.3156605e+11 </wgt>
<wgt id='1522'> +3.3605631e+11 </wgt>
<wgt id='1523'> +3.3797043e+11 </wgt>
<wgt id='1524'> +3.3556566e+11 </wgt>
<wgt id='1525'> +3.3478670e+11 </wgt>
<wgt id='1526'> +3.3740314e+11 </wgt>
<wgt id='1527'> +3.3448850e+11 </wgt>
<wgt id='1528'> +3.2703873e+11 </wgt>
<wgt id='1529'> +3.4237029e+11 </wgt>
<wgt id='1530'> +3.0744511e+11 </wgt>
<wgt id='1531'> +3.5578653e+11 </wgt>
<wgt id='1532'> +3.6620084e+11 </wgt>
<wgt id='1533'> +3.5003872e+11 </wgt>
<wgt id='1534'> +3.5120462e+11 </wgt>
<wgt id='1535'> +3.6072407e+11 </wgt>
<wgt id='1536'> +3.4384606e+11 </wgt>
<wgt id='1537'> +3.6783490e+11 </wgt>
<wgt id='1538'> +3.4964643e+11 </wgt>
<wgt id='1539'> +3.6520489e+11 </wgt>
<wgt id='1540'> +3.6526722e+11 </wgt>
<wgt id='1541'> +3.6009507e+11 </wgt>
<wgt id='1542'> +3.5929144e+11 </wgt>
<wgt id='1543'> +3.6286302e+11 </wgt>
<wgt id='1544'> +3.5126227e+11 </wgt>
<wgt id='1545'> +3.5383308e+11 </wgt>
<wgt id='1546'> +3.5287671e+11 </wgt>
<wgt id='1547'> +3.5791132e+11 </wgt>
<wgt id='1548'> +3.5676818e+11 </wgt>
<wgt id='1549'> +3.5265468e+11 </wgt>
<wgt id='1550'> +3.5988903e+11 </wgt>
<wgt id='1551'> +3.5841770e+11 </wgt>
<wgt id='1552'> +3.5695419e+11 </wgt>
<wgt id='1553'> +3.7045988e+11 </wgt>
<wgt id='1554'> +3.5806583e+11 </wgt>
<wgt id='1555'> +3.5498799e+11 </wgt>
<wgt id='1556'> +3.5999819e+11 </wgt>
<wgt id='1557'> +3.5636650e+11 </wgt>
<wgt id='1558'> +3.5514448e+11 </wgt>
<wgt id='1559'> +3.5595056e+11 </wgt>
<wgt id='1560'> +3.5839754e+11 </wgt>
<wgt id='1561'> +3.5461713e+11 </wgt>
<wgt id='1562'> +3.4816427e+11 </wgt>
<wgt id='1563'> +3.5646529e+11 </wgt>
<wgt id='1564'> +3.5517028e+11 </wgt>
<wgt id='1565'> +3.6448380e+11 </wgt>
<wgt id='1566'> +3.5553230e+11 </wgt>
<wgt id='1567'> +3.4948186e+11 </wgt>
<wgt id='1568'> +3.5538519e+11 </wgt>
<wgt id='1569'> +3.5558884e+11 </wgt>
<wgt id='1570'> +3.6435351e+11 </wgt>
<wgt id='1571'> +3.5355638e+11 </wgt>
<wgt id='1572'> +3.5142892e+11 </wgt>
<wgt id='1573'> +3.6907521e+11 </wgt>
<wgt id='1574'> +2.2168572e+11 </wgt>
<wgt id='1575'> +2.2173774e+11 </wgt>
<wgt id='1576'> +2.2161553e+11 </wgt>
<wgt id='1577'> +2.2170193e+11 </wgt>
<wgt id='1578'> +2.2219389e+11 </wgt>
<wgt id='1579'> +2.2230608e+11 </wgt>
<wgt id='1580'> +2.2206726e+11 </wgt>
<wgt id='1581'> +2.2159297e+11 </wgt>
<wgt id='1582'> +2.2139982e+11 </wgt>
<wgt id='1583'> +2.2113742e+11 </wgt>
<wgt id='1584'> +2.2223225e+11 </wgt>
<wgt id='1585'> +2.2219718e+11 </wgt>
<wgt id='1586'> +2.2138534e+11 </wgt>
<wgt id='1587'> +2.2134765e+11 </wgt>
<wgt id='1588'> +2.2102293e+11 </wgt>
<wgt id='1589'> +2.2118751e+11 </wgt>
<wgt id='1590'> +2.2148751e+11 </wgt>
<wgt id='1591'> +2.2174673e+11 </wgt>
<wgt id='1592'> +2.2094292e+11 </wgt>
<wgt id='1593'> +2.2036498e+11 </wgt>
<wgt id='1594'> +2.2312859e+11 </wgt>
<wgt id='1595'> +2.1888766e+11 </wgt>
<wgt id='1596'> +2.2666975e+11 </wgt>
<wgt id='1597'> +2.2333358e+11 </wgt>
<wgt id='1598'> +2.2320738e+11 </wgt>
<wgt id='1599'> +2.1849172e+11 </wgt>
<wgt id='1600'> +2.2694492e+11 </wgt>
<wgt id='1601'> +2.2374324e+11 </wgt>
<wgt id='1602'> +2.2226044e+11 </wgt>
<wgt id='1603'> +2.4079484e+11 </wgt>
<wgt id='1604'> +2.2123863e+11 </wgt>
</rwgt>
</event>
<event>
 9      1 +2.8343000e+11 1.39998900e+03 7.81738600e-03 7.88881800e-02
       21 -1    0    0  504  503 +0.0000000000e+00 +0.0000000000e+00 +6.2339299407e+02 6.2339299407e+02 0.0000000000e+00 0.0000e+00 1.0000e+00
       21 -1    0    0  503  504 -0.0000000000e+00 -0.0000000000e+00 -7.8600919752e+02 7.8600919752e+02 0.0000000000e+00 0.0000e+00 1.0000e+00
       45  2    1    2    0    0 +0.0000000000e+00 +1.1368683772e-13 -1.6261620345e+02 1.4094021916e+03 1.3999894671e+03 0.0000e+00 0.0000e+00
       25  2    3    3    0    0 +3.3249399002e+02 -5.8258900313e+02 -2.5060370884e+02 7.2690397599e+02 1.2499988587e+02 0.0000e+00 0.0000e+00
       35  2    3    3    0    0 -3.3249399002e+02 +5.8258900313e+02 +8.7987505387e+01 6.8249821559e+02 8.9998962299e+01 0.0000e+00 0.0000e+00
        5  1    5    5  501    0 +5.1626287103e+00 +1.0796150651e+01 +2.8338260401e+00 1.2999921927e+01 4.2140000000e+00 0.0000e+00 1.0000e+00
       -5  1    5    5    0  501 -3.3765661873e+02 +5.7179285248e+02 +8.5153679347e+01 6.6949829366e+02 4.2140000000e+00 0.0000e+00 1.0000e+00
        5  1    4    4  502    0 +1.4189691229e+01 -3.3292011854e+01 -4.8457192079e+01 6.0626418752e+01 4.2140000000e+00 0.0000e+00 -1.0000e+00
       -5  1    4    4    0  502 +3.1830429879e+02 -5.4929699127e+02 -2.0214651676e+02 6.6627755724e+02 4.2140000000e+00 0.0000e+00 -1.0000e+00
<mgrwt>
<rscale>  0 0.13999895E+04</rscale>
<asrwt>0</asrwt>
<pdfrwt beam="1">  1       21 0.95906615E-01 0.13999895E+04</pdfrwt>
<pdfrwt beam="2">  1       21 0.12092449E+00 0.13999895E+04</pdfrwt>
<totfact> 0.35471500E+02</totfact>
</mgrwt>
<rwgt>
<wgt id='1001'> +2.8343000e+11 </wgt>
<wgt id='1002'> +2.8514505e+11 </wgt>
<wgt id='1003'> +2.8513846e+11 </wgt>
<wgt id='1004'> +3.1977247e+11 </wgt>
<wgt id='1005'> +2.8343000e+11 </wgt>
<wgt id='1006'> +2.8343000e+11 </wgt>
<wgt id='1007'> +2.8514505e+11 </wgt>
<wgt id='1008'> +2.8513846e+11 </wgt>
<wgt id='1009'> +3.1977247e+11 </wgt>
<wgt id='1010'> +2.8343000e+11 </wgt>
<wgt id='1011'> +2.8343000e+11 </wgt>
<wgt id='1012'> +2.8514505e+11 </wgt>
<wgt id='1013'> +2.8513846e+11 </wgt>
<wgt id='1014'> +3.1977247e+11 </wgt>
<wgt id='1015'> +2.8343000e+11 </wgt>
<wgt id='1016'> +2.5465746e+11 </wgt>
<wgt id='1017'> +2.5611091e+11 </wgt>
<wgt id='1018'> +2.5610533e+11 </wgt>
<wgt id='1019'> +2.8513846e+11 </wgt>
<wgt id='1020'> +2.5465746e+11 </wgt>
<wgt id='1021'> +2.5465746e+11 </wgt>
<wgt id='1022'> +2.5611091e+11 </wgt>
<wgt id='1023'> +2.5610533e+11 </wgt>
<wgt id='1024'> +2.8513846e+11 </wgt>
<wgt id='1025'> +2.5465746e+11 </wgt>
<wgt id='1026'> +2.5465746e+11 </wgt>
<wgt id='1027'> +2.5611091e+11 </wgt>
<wgt id='1028'> +2.5610533e+11 </wgt>
<wgt id='1029'> +2.8513846e+11 </wgt>
<wgt id='1030'> +2.5465746e+11 </wgt>
<wgt id='1031'> +3.1772201e+11 </wgt>
<wgt id='1032'> +3.1978037e+11 </wgt>
<wgt id='1033'> +3.1977247e+11 </wgt>
<wgt id='1034'> +3.6142024e+11 </wgt>
<wgt id='1035'> +3.1772201e+11 </wgt>
<wgt id='1036'> +3.1772201e+11 </wgt>
<wgt id='1037'> +3.1978037e+11 </wgt>
<wgt id='1038'> +3.1977247e+11 </wgt>
<wgt id='1039'> +3.6142024e+11 </wgt>
<wgt id='1040'> +3.1772201e+11 </wgt>
<wgt id='1041'> +3.1772201e+11 </wgt>
<wgt id='1042'> +3.1978037e+11 </wgt>
<wgt id='1043'> +3.1977247e+11 </wgt>
<wgt id='1044'> +3.6142024e+11 </wgt>
<wgt id='1045'> +3.1772201e+11 </wgt>
<wgt id='1046'> +2.8343000e+11 </wgt>
<wgt id='1047'> +2.8343000e+11 </wgt>
<wgt id='1048'> +2.8343000e+11 </wgt>
<wgt id='1049'> +2.8230279e+11 </wgt>
<wgt id='1050'> +2.8306650e+11 </wgt>
<wgt id='1051'> +2.8371178e+11 </wgt>
<wgt id='1052'> +2.8422265e+11 </wgt>
<wgt id='1053'> +2.8188244e+11 </wgt>
<wgt id='1054'> +2.8387194e+11 </wgt>
<wgt id='1055'> +2.8225180e+11 </wgt>
<wgt id='1056'> +2.8183955e+11 </wgt>
<wgt id='1057'> +2.8417663e+11 </wgt>
<wgt id='1058'> +2.8304245e+11 </wgt>
<wgt id='1059'> +2.8540450e+11 </wgt>
<wgt id='1060'> +2.8365827e+11 </wgt>
<wgt id='1061'> +2.8418449e+11 </wgt>
<wgt id='1062'> +2.8402565e+11 </wgt>
<wgt id='1063'> +2.8370468e+11 </wgt>
<wgt id='1064'> +2.8465308e+11 </wgt>
<wgt id='1065'> +2.8485792e+11 </wgt>
<wgt id='1066'> +2.8192941e+11 </wgt>
<wgt id='1067'> +2.7981081e+11 </wgt>
<wgt id='1068'> +2.8377270e+11 </wgt>
<wgt id='1069'> +2.8275236e+11 </wgt>
<wgt id='1070'> +2.8346864e+11 </wgt>
<wgt id='1071'> +2.8479684e+11 </wgt>
<wgt id='1072'> +2.8115915e+11 </wgt>
<wgt id='1073'> +2.8408880e+11 </wgt>
<wgt id='1074'> +2.8310141e+11 </wgt>
<wgt id='1075'> +2.8442342e+11 </wgt>
<wgt id='1076'> +2.8309994e+11 </wgt>
<wgt id='1077'> +2.8289038e+11 </wgt>
<wgt id='1078'> +2.8410271e+11 </wgt>
<wgt id='1079'> +2.8181999e+11 </wgt>
<wgt id='1080'> +2.8280630e+11 </wgt>
<wgt id='1081'> +2.8300896e+11 </wgt>
<wgt id='1082'> +2.8205442e+11 </wgt>
<wgt id='1083'> +2.8398504e+11 </wgt>
<wgt id='1084'> +2.8406759e+11 </wgt>
<wgt id='1085'> +2.8284955e+11 </wgt>
<wgt id='1086'> +2.8282901e+11 </wgt>
<wgt id='1087'> +2.8308376e+11 </wgt>
<wgt id='1088'> +2.8294311e+11 </wgt>
<wgt id='1089'> +2.8279798e+11 </wgt>
<wgt id='1090'> +2.8413745e+11 </wgt>
<wgt id='1091'> +2.8350014e+11 </wgt>
<wgt id='1092'> +2.8368599e+11 </wgt>
<wgt id='1093'> +2.8332029e+11 </wgt>
<wgt id='1094'> +2.8289252e+11 </wgt>
<wgt id='1095'> +2.8354907e+11 </wgt>
<wgt id='1096'> +2.8337109e+11 </wgt>
<wgt id='1097'> +2.8303085e+11 </wgt>
<wgt id='1098'> +2.8307691e+11 </wgt>
<wgt id='1099'> +2.8322000e+11 </wgt>
<wgt id='1100'> +2.8401674e+11 </wgt>
<wgt id='1101'> +2.8340728e+11 </wgt>
<wgt id='1102'> +2.8328135e+11 </wgt>
<wgt id='1103'> +2.8310671e+11 </wgt>
<wgt id='1104'> +2.8310467e+11 </wgt>
<wgt id='1105'> +2.8354128e+11 </wgt>
<wgt id='1106'> +2.8375769e+11 </wgt>
<wgt id='1107'> +2.8333254e+11 </wgt>
<wgt id='1108'> +2.8333907e+11 </wgt>
<wgt id='1109'> +2.8323336e+11 </wgt>
<wgt id='1110'> +2.8375989e+11 </wgt>
<wgt id='1111'> +2.8356002e+11 </wgt>
<wgt id='1112'> +2.8339854e+11 </wgt>
<wgt id='1113'> +2.8374025e+11 </wgt>
<wgt id='1114'> +2.8311284e+11 </wgt>
<wgt id='1115'> +2.8324939e+11 </wgt>
<wgt id='1116'> +2.8374240e+11 </wgt>
<wgt id='1117'> +2.8337096e+11 </wgt>
<wgt id='1118'> +2.8353143e+11 </wgt>
<wgt id='1119'> +2.8325231e+11 </wgt>
<wgt id='1120'> +2.8328137e+11 </wgt>
<wgt id='1121'> +2.8349227e+11 </wgt>
<wgt id='1122'> +2.8322768e+11 </wgt>
<wgt id='1123'> +2.8337483e+11 </wgt>
<wgt id='1124'> +2.8334587e+11 </wgt>
<wgt id='1125'> +2.8358899e+11 </wgt>
<wgt id='1126'> +2.8353603e+11 </wgt>
<wgt id='1127'> +2.8332227e+11 </wgt>
<wgt id='1128'> +2.8347054e+11 </wgt>
<wgt id='1129'> +2.8338525e+11 </wgt>
<wgt id='1130'> +2.8346193e+11 </wgt>
<wgt id='1131'> +2.8370053e+11 </wgt>
<wgt id='1132'> +2.8335113e+11 </wgt>
<wgt id='1133'> +2.8350679e+11 </wgt>
<wgt id='1134'> +2.8340954e+11 </wgt>
<wgt id='1135'> +2.8346981e+11 </wgt>
<wgt id='1136'> +2.8339572e+11 </wgt>
<wgt id='1137'> +2.8328468e+11 </wgt>
<wgt id='1138'> +2.8354392e+11 </wgt>
<wgt id='1139'> +2.8346853e+11 </wgt>
<wgt id='1140'> +2.8364078e+11 </wgt>
<wgt id='1141'> +2.8330144e+11 </wgt>
<wgt id='1142'> +2.8350125e+11 </wgt>
<wgt id='1143'> +2.8359625e+11 </wgt>
<wgt id='1144'> +2.8334422e+11 </wgt>
<wgt id='1145'> +2.8355447e+11 </wgt>
<wgt id='1146'> +2.8341197e+11 </wgt>
<wgt id='1147'> +2.8347665e+11 </wgt>
<wgt id='1148'> +2.8343000e+11 </wgt>
<wgt id='1149'> +2.8343000e+11 </wgt>
<wgt id='1150'> +2.9160097e+11 </wgt>
<wgt id='1151'> +2.8103968e+11 </wgt>
<wgt id='1152'> +2.8495571e+11 </wgt>
<wgt id='1153'> +2.8763204e+11 </wgt>
<wgt id='1154'> +2.8724511e+11 </wgt>
<wgt id='1155'> +2.8855796e+11 </wgt>
<wgt id='1156'> +2.7659258e+11 </wgt>
<wgt id='1157'> +2.7651255e+11 </wgt>
<wgt id='1158'> +2.7760739e+11 </wgt>
<wgt id='1159'> +2.9640188e+11 </wgt>
<wgt id='1160'> +2.8171923e+11 </wgt>
<wgt id='1161'> +2.8552693e+11 </wgt>
<wgt id='1162'> +2.7676827e+11 </wgt>
<wgt id='1163'> +2.8679705e+11 </wgt>
<wgt id='1164'> +2.6770552e+11 </wgt>
<wgt id='1165'> +2.7921332e+11 </wgt>
<wgt id='1166'> +2.8492027e+11 </wgt>
<wgt id='1167'> +2.7982600e+11 </wgt>
<wgt id='1168'> +2.7645987e+11 </wgt>
<wgt id='1169'> +2.7593642e+11 </wgt>
<wgt id='1170'> +2.7639368e+11 </wgt>
<wgt id='1171'> +2.7342399e+11 </wgt>
<wgt id='1172'> +2.7744736e+11 </wgt>
<wgt id='1173'> +2.8785968e+11 </wgt>
<wgt id='1174'> +2.7953882e+11 </wgt>
<wgt id='1175'> +2.7535591e+11 </wgt>
<wgt id='1176'> +2.8637061e+11 </wgt>
<wgt id='1177'> +2.7917946e+11 </wgt>
<wgt id='1178'> +2.8313368e+11 </wgt>
<wgt id='1179'> +2.8031406e+11 </wgt>
<wgt id='1180'> +2.8425614e+11 </wgt>
<wgt id='1181'> +2.7693284e+11 </wgt>
<wgt id='1182'> +2.8154195e+11 </wgt>
<wgt id='1183'> +2.9551450e+11 </wgt>
<wgt id='1184'> +2.7686497e+11 </wgt>
<wgt id='1185'> +2.8125548e+11 </wgt>
<wgt id='1186'> +2.7191883e+11 </wgt>
<wgt id='1187'> +2.8564651e+11 </wgt>
<wgt id='1188'> +2.7782483e+11 </wgt>
<wgt id='1189'> +2.8544633e+11 </wgt>
<wgt id='1190'> +2.8410104e+11 </wgt>
<wgt id='1191'> +2.9500866e+11 </wgt>
<wgt id='1192'> +2.9172488e+11 </wgt>
<wgt id='1193'> +2.9521305e+11 </wgt>
<wgt id='1194'> +2.8448558e+11 </wgt>
<wgt id='1195'> +2.8374797e+11 </wgt>
<wgt id='1196'> +2.9232703e+11 </wgt>
<wgt id='1197'> +2.9393866e+11 </wgt>
<wgt id='1198'> +2.7569491e+11 </wgt>
<wgt id='1199'> +2.8228870e+11 </wgt>
<wgt id='1200'> +2.8246863e+11 </wgt>
<wgt id='1201'> +2.7934684e+11 </wgt>
<wgt id='1202'> +2.8858341e+11 </wgt>
<wgt id='1203'> +2.7772278e+11 </wgt>
<wgt id='1204'> +2.8811681e+11 </wgt>
<wgt id='1205'> +2.8502168e+11 </wgt>
<wgt id='1206'> +2.7659654e+11 </wgt>
<wgt id='1207'> +2.9304232e+11 </wgt>
<wgt id='1208'> +2.7273901e+11 </wgt>
<wgt id='1209'> +2.7881826e+11 </wgt>
<wgt id='1210'> +2.8047718e+11 </wgt>
<wgt id='1211'> +2.8574806e+11 </wgt>
<wgt id='1212'> +2.8363047e+11 </wgt>
<wgt id='1213'> +2.9328060e+11 </wgt>
<wgt id='1214'> +2.7574145e+11 </wgt>
<wgt id='1215'> +2.9179643e+11 </wgt>
<wgt id='1216'> +2.8595715e+11 </wgt>
<wgt id='1217'> +2.7594214e+11 </wgt>
<wgt id='1218'> +2.8476841e+11 </wgt>
<wgt id='1219'> +2.9437156e+11 </wgt>
<wgt id='1220'> +2.7714580e+11 </wgt>
<wgt id='1221'> +2.7508181e+11 </wgt>
<wgt id='1222'> +2.8031355e+11 </wgt>
<wgt id='1223'> +2.7260707e+11 </wgt>
<wgt id='1224'> +2.8350809e+11 </wgt>
<wgt id='1225'> +2.8813712e+11 </wgt>
<wgt id='1226'> +2.9051805e+11 </wgt>
<wgt id='1227'> +2.7328761e+11 </wgt>
<wgt id='1228'> +2.8139927e+11 </wgt>
<wgt id='1229'> +3.0279710e+11 </wgt>
<wgt id='1230'> +2.9401484e+11 </wgt>
<wgt id='1231'> +2.7921332e+11 </wgt>
<wgt id='1232'> +2.8904005e+11 </wgt>
<wgt id='1233'> +2.7807680e+11 </wgt>
<wgt id='1234'> +2.7635135e+11 </wgt>
<wgt id='1235'> +3.0288301e+11 </wgt>
<wgt id='1236'> +2.7660124e+11 </wgt>
<wgt id='1237'> +2.8977309e+11 </wgt>
<wgt id='1238'> +2.8942189e+11 </wgt>
<wgt id='1239'> +2.9183108e+11 </wgt>
<wgt id='1240'> +2.8529004e+11 </wgt>
<wgt id='1241'> +2.8207650e+11 </wgt>
<wgt id='1242'> +2.8069920e+11 </wgt>
<wgt id='1243'> +2.8884592e+11 </wgt>
<wgt id='1244'> +2.8131751e+11 </wgt>
<wgt id='1245'> +2.8173836e+11 </wgt>
<wgt id='1246'> +3.0714430e+11 </wgt>
<wgt id='1247'> +2.8361305e+11 </wgt>
<wgt id='1248'> +2.7526590e+11 </wgt>
<wgt id='1249'> +2.7757012e+11 </wgt>
<wgt id='1250'> +2.9213535e+11 </wgt>
<wgt id='1251'> +2.9864704e+11 </wgt>
<wgt id='1252'> +2.8707683e+11 </wgt>
<wgt id='1253'> +2.8523646e+11 </wgt>
<wgt id='1254'> +2.8852436e+11 </wgt>
<wgt id='1255'> +2.9799662e+11 </wgt>
<wgt id='1256'> +2.9545781e+11 </wgt>
<wgt id='1257'> +2.8592009e+11 </wgt>
<wgt id='1258'> +2.9992998e+11 </wgt>
<wgt id='1259'> +2.9474820e+11 </wgt>
<wgt id='1260'> +3.2537199e+11 </wgt>
<wgt id='1261'> +3.1365074e+11 </wgt>
<wgt id='1262'> +2.8960740e+11 </wgt>
<wgt id='1263'> +2.9666384e+11 </wgt>
<wgt id='1264'> +2.9852568e+11 </wgt>
<wgt id='1265'> +2.9849330e+11 </wgt>
<wgt id='1266'> +2.9442151e+11 </wgt>
<wgt id='1267'> +3.1605019e+11 </wgt>
<wgt id='1268'> +2.9397835e+11 </wgt>
<wgt id='1269'> +2.8707891e+11 </wgt>
<wgt id='1270'> +2.9155715e+11 </wgt>
<wgt id='1271'> +2.7898208e+11 </wgt>
<wgt id='1272'> +2.9320986e+11 </wgt>
<wgt id='1273'> +2.9173492e+11 </wgt>
<wgt id='1274'> +2.8747284e+11 </wgt>
<wgt id='1275'> +2.9830701e+11 </wgt>
<wgt id='1276'> +2.9549715e+11 </wgt>
<wgt id='1277'> +2.9086531e+11 </wgt>
<wgt id='1278'> +2.8681592e+11 </wgt>
<wgt id='1279'> +2.8105703e+11 </wgt>
<wgt id='1280'> +2.9349848e+11 </wgt>
<wgt id='1281'> +2.8567554e+11 </wgt>
<wgt id='1282'> +2.9647697e+11 </wgt>
<wgt id='1283'> +2.9631949e+11 </wgt>
<wgt id='1284'> +3.1456251e+11 </wgt>
<wgt id='1285'> +3.0808161e+11 </wgt>
<wgt id='1286'> +3.2857733e+11 </wgt>
<wgt id='1287'> +3.0317072e+11 </wgt>
<wgt id='1288'> +3.2364399e+11 </wgt>
<wgt id='1289'> +3.1288955e+11 </wgt>
<wgt id='1290'> +3.1130760e+11 </wgt>
<wgt id='1291'> +2.7779162e+11 </wgt>
<wgt id='1292'> +2.9740065e+11 </wgt>
<wgt id='1293'> +3.0012494e+11 </wgt>
<wgt id='1294'> +3.1439823e+11 </wgt>
<wgt id='1295'> +2.9846667e+11 </wgt>
<wgt id='1296'> +3.1548175e+11 </wgt>
<wgt id='1297'> +2.9532262e+11 </wgt>
<wgt id='1298'> +2.8762541e+11 </wgt>
<wgt id='1299'> +2.9856645e+11 </wgt>
<wgt id='1300'> +2.8793763e+11 </wgt>
<wgt id='1301'> +2.8072244e+11 </wgt>
<wgt id='1302'> +2.7593400e+11 </wgt>
<wgt id='1303'> +2.9834672e+11 </wgt>
<wgt id='1304'> +3.0625957e+11 </wgt>
<wgt id='1305'> +2.9821404e+11 </wgt>
<wgt id='1306'> +3.0509479e+11 </wgt>
<wgt id='1307'> +3.0328341e+11 </wgt>
<wgt id='1308'> +3.2529504e+11 </wgt>
<wgt id='1309'> +2.9575578e+11 </wgt>
<wgt id='1310'> +3.0207539e+11 </wgt>
<wgt id='1311'> +3.0767953e+11 </wgt>
<wgt id='1312'> +2.9916896e+11 </wgt>
<wgt id='1313'> +2.9685924e+11 </wgt>
<wgt id='1314'> +3.0387899e+11 </wgt>
<wgt id='1315'> +2.8483977e+11 </wgt>
<wgt id='1316'> +2.9843892e+11 </wgt>
<wgt id='1317'> +3.0133047e+11 </wgt>
<wgt id='1318'> +2.8643261e+11 </wgt>
<wgt id='1319'> +3.0733087e+11 </wgt>
<wgt id='1320'> +3.0906100e+11 </wgt>
<wgt id='1321'> +2.9367797e+11 </wgt>
<wgt id='1322'> +2.9773879e+11 </wgt>
<wgt id='1323'> +2.9836850e+11 </wgt>
<wgt id='1324'> +3.0120494e+11 </wgt>
<wgt id='1325'> +3.1082236e+11 </wgt>
<wgt id='1326'> +3.0285406e+11 </wgt>
<wgt id='1327'> +2.9371420e+11 </wgt>
<wgt id='1328'> +3.0231587e+11 </wgt>
<wgt id='1329'> +2.9763594e+11 </wgt>
<wgt id='1330'> +2.9050017e+11 </wgt>
<wgt id='1331'> +3.1916261e+11 </wgt>
<wgt id='1332'> +2.8605724e+11 </wgt>
<wgt id='1333'> +3.0047255e+11 </wgt>
<wgt id='1334'> +3.1376671e+11 </wgt>
<wgt id='1335'> +2.9240973e+11 </wgt>
<wgt id='1336'> +3.0238986e+11 </wgt>
<wgt id='1337'> +3.0835309e+11 </wgt>
<wgt id='1338'> +2.8967086e+11 </wgt>
<wgt id='1339'> +3.2012934e+11 </wgt>
<wgt id='1340'> +3.0155375e+11 </wgt>
<wgt id='1341'> +3.0495092e+11 </wgt>
<wgt id='1342'> +3.1525001e+11 </wgt>
<wgt id='1343'> +3.1009851e+11 </wgt>
<wgt id='1344'> +3.0354575e+11 </wgt>
<wgt id='1345'> +2.7965918e+11 </wgt>
<wgt id='1346'> +2.9944326e+11 </wgt>
<wgt id='1347'> +2.8674239e+11 </wgt>
<wgt id='1348'> +2.8788355e+11 </wgt>
<wgt id='1349'> +2.8960944e+11 </wgt>
<wgt id='1350'> +3.0042499e+11 </wgt>
<wgt id='1351'> +2.9655133e+11 </wgt>
<wgt id='1352'> +3.0039848e+11 </wgt>
<wgt id='1353'> +2.9707826e+11 </wgt>
<wgt id='1354'> +3.0680358e+11 </wgt>
<wgt id='1355'> +2.7557050e+11 </wgt>
<wgt id='1356'> +2.7832262e+11 </wgt>
<wgt id='1357'> +2.7643448e+11 </wgt>
<wgt id='1358'> +2.7300063e+11 </wgt>
<wgt id='1359'> +2.7631497e+11 </wgt>
<wgt id='1360'> +2.6882780e+11 </wgt>
<wgt id='1361'> +2.7558892e+11 </wgt>
<wgt id='1362'> +2.7752140e+11 </wgt>
<wgt id='1363'> +2.6949171e+11 </wgt>
<wgt id='1364'> +2.8178650e+11 </wgt>
<wgt id='1365'> +2.7324423e+11 </wgt>
<wgt id='1366'> +2.7562247e+11 </wgt>
<wgt id='1367'> +2.7641533e+11 </wgt>
<wgt id='1368'> +2.7561600e+11 </wgt>
<wgt id='1369'> +2.7980741e+11 </wgt>
<wgt id='1370'> +2.7370200e+11 </wgt>
<wgt id='1371'> +2.7332996e+11 </wgt>
<wgt id='1372'> +2.8004552e+11 </wgt>
<wgt id='1373'> +2.7920202e+11 </wgt>
<wgt id='1374'> +2.6746969e+11 </wgt>
<wgt id='1375'> +2.7450894e+11 </wgt>
<wgt id='1376'> +2.7642988e+11 </wgt>
<wgt id='1377'> +2.7552051e+11 </wgt>
<wgt id='1378'> +2.7143561e+11 </wgt>
<wgt id='1379'> +2.7403851e+11 </wgt>
<wgt id='1380'> +2.7396537e+11 </wgt>
<wgt id='1381'> +2.8088134e+11 </wgt>
<wgt id='1382'> +2.7519120e+11 </wgt>
<wgt id='1383'> +2.7549135e+11 </wgt>
<wgt id='1384'> +2.7390241e+11 </wgt>
<wgt id='1385'> +2.7406131e+11 </wgt>
<wgt id='1386'> +2.7746954e+11 </wgt>
<wgt id='1387'> +2.7455680e+11 </wgt>
<wgt id='1388'> +2.7183920e+11 </wgt>
<wgt id='1389'> +2.7390169e+11 </wgt>
<wgt id='1390'> +2.7457327e+11 </wgt>
<wgt id='1391'> +2.7331009e+11 </wgt>
<wgt id='1392'> +2.7340865e+11 </wgt>
<wgt id='1393'> +2.7359864e+11 </wgt>
<wgt id='1394'> +2.7328588e+11 </wgt>
<wgt id='1395'> +2.7130683e+11 </wgt>
<wgt id='1396'> +2.7659836e+11 </wgt>
<wgt id='1397'> +2.7618408e+11 </wgt>
<wgt id='1398'> +2.7621156e+11 </wgt>
<wgt id='1399'> +2.7121865e+11 </wgt>
<wgt id='1400'> +2.7259999e+11 </wgt>
<wgt id='1401'> +2.7412450e+11 </wgt>
<wgt id='1402'> +2.7881534e+11 </wgt>
<wgt id='1403'> +2.7873579e+11 </wgt>
<wgt id='1404'> +2.7345209e+11 </wgt>
<wgt id='1405'> +2.8168484e+11 </wgt>
<wgt id='1406'> +2.7535206e+11 </wgt>
<wgt id='1407'> +2.7626132e+11 </wgt>
<wgt id='1408'> +2.7877244e+11 </wgt>
<wgt id='1409'> +2.7345217e+11 </wgt>
<wgt id='1410'> +2.7316602e+11 </wgt>
<wgt id='1411'> +2.7525464e+11 </wgt>
<wgt id='1412'> +2.7442486e+11 </wgt>
<wgt id='1413'> +2.7249221e+11 </wgt>
<wgt id='1414'> +2.7730756e+11 </wgt>
<wgt id='1415'> +2.8132087e+11 </wgt>
<wgt id='1416'> +2.7869758e+11 </wgt>
<wgt id='1417'> +2.6892844e+11 </wgt>
<wgt id='1418'> +2.7720864e+11 </wgt>
<wgt id='1419'> +2.7912145e+11 </wgt>
<wgt id='1420'> +2.7479223e+11 </wgt>
<wgt id='1421'> +2.8162534e+11 </wgt>
<wgt id='1422'> +2.6801322e+11 </wgt>
<wgt id='1423'> +2.8081295e+11 </wgt>
<wgt id='1424'> +2.7660089e+11 </wgt>
<wgt id='1425'> +2.7579859e+11 </wgt>
<wgt id='1426'> +2.7908798e+11 </wgt>
<wgt id='1427'> +2.7552644e+11 </wgt>
<wgt id='1428'> +2.7541472e+11 </wgt>
<wgt id='1429'> +2.7149993e+11 </wgt>
<wgt id='1430'> +2.7084650e+11 </wgt>
<wgt id='1431'> +2.7084904e+11 </wgt>
<wgt id='1432'> +2.7745588e+11 </wgt>
<wgt id='1433'> +2.7617172e+11 </wgt>
<wgt id='1434'> +2.8229007e+11 </wgt>
<wgt id='1435'> +2.7469720e+11 </wgt>
<wgt id='1436'> +2.7971437e+11 </wgt>
<wgt id='1437'> +2.7821755e+11 </wgt>
<wgt id='1438'> +2.7363369e+11 </wgt>
<wgt id='1439'> +2.7634193e+11 </wgt>
<wgt id='1440'> +2.8013511e+11 </wgt>
<wgt id='1441'> +2.7543268e+11 </wgt>
<wgt id='1442'> +2.8316981e+11 </wgt>
<wgt id='1443'> +2.7373601e+11 </wgt>
<wgt id='1444'> +2.7395010e+11 </wgt>
<wgt id='1445'> +2.7850382e+11 </wgt>
<wgt id='1446'> +2.7785728e+11 </wgt>
<wgt id='1447'> +2.7159881e+11 </wgt>
<wgt id='1448'> +2.7793098e+11 </wgt>
<wgt id='1449'> +2.7695354e+11 </wgt>
<wgt id='1450'> +2.7371690e+11 </wgt>
<wgt id='1451'> +2.7682959e+11 </wgt>
<wgt id='1452'> +2.7873222e+11 </wgt>
<wgt id='1453'> +2.8053229e+11 </wgt>
<wgt id='1454'> +2.6892209e+11 </wgt>
<wgt id='1455'> +2.7480446e+11 </wgt>
<wgt id='1456'> +2.7480418e+11 </wgt>
<wgt id='1457'> +2.7435005e+11 </wgt>
<wgt id='1458'> +2.7750286e+11 </wgt>
<wgt id='1459'> +3.0489431e+11 </wgt>
<wgt id='1460'> +3.0021849e+11 </wgt>
<wgt id='1461'> +3.4745536e+11 </wgt>
<wgt id='1462'> +2.9966366e+11 </wgt>
<wgt id='1463'> +2.9991339e+11 </wgt>
<wgt id='1464'> +2.9934341e+11 </wgt>
<wgt id='1465'> +2.9972514e+11 </wgt>
<wgt id='1466'> +2.9960751e+11 </wgt>
<wgt id='1467'> +2.9982638e+11 </wgt>
<wgt id='1468'> +2.9939672e+11 </wgt>
<wgt id='1469'> +2.9921324e+11 </wgt>
<wgt id='1470'> +3.0002952e+11 </wgt>
<wgt id='1471'> +3.0014206e+11 </wgt>
<wgt id='1472'> +2.9917094e+11 </wgt>
<wgt id='1473'> +3.0081465e+11 </wgt>
<wgt id='1474'> +2.9855816e+11 </wgt>
<wgt id='1475'> +3.0076216e+11 </wgt>
<wgt id='1476'> +2.9888485e+11 </wgt>
<wgt id='1477'> +2.9909027e+11 </wgt>
<wgt id='1478'> +3.0100307e+11 </wgt>
<wgt id='1479'> +2.9908939e+11 </wgt>
<wgt id='1480'> +3.0006458e+11 </wgt>
<wgt id='1481'> +2.9924232e+11 </wgt>
<wgt id='1482'> +3.0023185e+11 </wgt>
<wgt id='1483'> +2.9976164e+11 </wgt>
<wgt id='1484'> +2.9952453e+11 </wgt>
<wgt id='1485'> +2.9986497e+11 </wgt>
<wgt id='1486'> +2.9917890e+11 </wgt>
<wgt id='1487'> +2.9991283e+11 </wgt>
<wgt id='1488'> +2.9935030e+11 </wgt>
<wgt id='1489'> +2.9931221e+11 </wgt>
<wgt id='1490'> +3.0061644e+11 </wgt>
<wgt id='1491'> +3.0458446e+11 </wgt>
<wgt id='1492'> +2.9691711e+11 </wgt>
<wgt id='1493'> +2.9616517e+11 </wgt>
<wgt id='1494'> +3.1062798e+11 </wgt>
<wgt id='1495'> +2.9902942e+11 </wgt>
<wgt id='1496'> +3.0034394e+11 </wgt>
<wgt id='1497'> +2.9986256e+11 </wgt>
<wgt id='1498'> +2.9939184e+11 </wgt>
<wgt id='1499'> +3.0153147e+11 </wgt>
<wgt id='1500'> +2.9864183e+11 </wgt>
<wgt id='1501'> +3.0012905e+11 </wgt>
<wgt id='1502'> +2.9843019e+11 </wgt>
<wgt id='1503'> +2.9653246e+11 </wgt>
<wgt id='1504'> +3.0298484e+11 </wgt>
<wgt id='1505'> +3.0069203e+11 </wgt>
<wgt id='1506'> +2.9867604e+11 </wgt>
<wgt id='1507'> +3.0096081e+11 </wgt>
<wgt id='1508'> +2.9894540e+11 </wgt>
<wgt id='1509'> +3.0023660e+11 </wgt>
<wgt id='1510'> +2.9720487e+11 </wgt>
<wgt id='1511'> +3.0077142e+11 </wgt>
<wgt id='1512'> +2.9935112e+11 </wgt>
<wgt id='1513'> +2.9958478e+11 </wgt>
<wgt id='1514'> +2.9973532e+11 </wgt>
<wgt id='1515'> +3.0206630e+11 </wgt>
<wgt id='1516'> +3.0012737e+11 </wgt>
<wgt id='1517'> +2.9929199e+11 </wgt>
<wgt id='1518'> +2.9996787e+11 </wgt>
<wgt id='1519'> +2.9803905e+11 </wgt>
<wgt id='1520'> +3.0082001e+11 </wgt>
<wgt id='1521'> +2.9890025e+11 </wgt>
<wgt id='1522'> +3.0012224e+11 </wgt>
<wgt id='1523'> +3.0103055e+11 </wgt>
<wgt id='1524'> +3.0101677e+11 </wgt>
<wgt id='1525'> +3.0090545e+11 </wgt>
<wgt id='1526'> +3.0043862e+11 </wgt>
<wgt id='1527'> +2.9966366e+11 </wgt>
<wgt id='1528'> +2.9949036e+11 </wgt>
<wgt id='1529'> +2.9930830e+11 </wgt>
<wgt id='1530'> +2.9554949e+11 </wgt>
<wgt id='1531'> +2.9629769e+11 </wgt>
<wgt id='1532'> +2.9390960e+11 </wgt>
<wgt id='1533'> +2.9188568e+11 </wgt>
<wgt id='1534'> +2.9468178e+11 </wgt>
<wgt id='1535'> +2.9877022e+11 </wgt>
<wgt id='1536'> +2.9327265e+11 </wgt>
<wgt id='1537'> +2.9619178e+11 </wgt>
<wgt id='1538'> +2.9313447e+11 </wgt>
<wgt id='1539'> +3.0250767e+11 </wgt>
<wgt id='1540'> +2.9545216e+11 </wgt>
<wgt id='1541'> +2.9645314e+11 </wgt>
<wgt id='1542'> +2.9620849e+11 </wgt>
<wgt id='1543'> +2.9734524e+11 </wgt>
<wgt id='1544'> +2.9439440e+11 </wgt>
<wgt id='1545'> +2.9433785e+11 </wgt>
<wgt id='1546'> +2.9239543e+11 </wgt>
<wgt id='1547'> +2.9859334e+11 </wgt>
<wgt id='1548'> +2.9429717e+11 </wgt>
<wgt id='1549'> +2.9294929e+11 </wgt>
<wgt id='1550'> +2.9691993e+11 </wgt>
<wgt id='1551'> +2.9693762e+11 </wgt>
<wgt id='1552'> +2.9562726e+11 </wgt>
<wgt id='1553'> +2.9812548e+11 </wgt>
<wgt id='1554'> +2.9614058e+11 </wgt>
<wgt id='1555'> +2.9690147e+11 </wgt>
<wgt id='1556'> +2.9866126e+11 </wgt>
<wgt id='1557'> +2.9552633e+11 </wgt>
<wgt id='1558'> +2.9628173e+11 </wgt>
<wgt id='1559'> +2.9426715e+11 </wgt>
<wgt id='1560'> +2.9507803e+11 </wgt>
<wgt id='1561'> +2.9238288e+11 </wgt>
<wgt id='1562'> +2.9486613e+11 </wgt>
<wgt id='1563'> +2.9622908e+11 </wgt>
<wgt id='1564'> +2.9590836e+11 </wgt>
<wgt id='1565'> +2.9847982e+11 </wgt>
<wgt id='1566'> +2.9657510e+11 </wgt>
<wgt id='1567'> +2.9985480e+11 </wgt>
<wgt id='1568'> +2.9624060e+11 </wgt>
<wgt id='1569'> +2.9593594e+11 </wgt>
<wgt id='1570'> +2.9825587e+11 </wgt>
<wgt id='1571'> +2.9608103e+11 </wgt>
<wgt id='1572'> +2.9802288e+11 </wgt>
<wgt id='1573'> +2.9912091e+11 </wgt>
<wgt id='1574'> +2.6613367e+11 </wgt>
<wgt id='1575'> +2.6620620e+11 </wgt>
<wgt id='1576'> +2.6606584e+11 </wgt>
<wgt id='1577'> +2.6615200e+11 </wgt>
<wgt id='1578'> +2.6674576e+11 </wgt>
<wgt id='1579'> +2.6700075e+11 </wgt>
<wgt id='1580'> +2.6677325e+11 </wgt>
<wgt id='1581'> +2.6550395e+11 </wgt>
<wgt id='1582'> +2.6519567e+11 </wgt>
<wgt id='1583'> +2.6569018e+11 </wgt>
<wgt id='1584'> +2.6671456e+11 </wgt>
<wgt id='1585'> +2.6632244e+11 </wgt>
<wgt id='1586'> +2.6510630e+11 </wgt>
<wgt id='1587'> +2.6536426e+11 </wgt>
<wgt id='1588'> +2.6485924e+11 </wgt>
<wgt id='1589'> +2.6588220e+11 </wgt>
<wgt id='1590'> +2.6594562e+11 </wgt>
<wgt id='1591'> +2.6620157e+11 </wgt>
<wgt id='1592'> +2.6509883e+11 </wgt>
<wgt id='1593'> +2.6526730e+11 </wgt>
<wgt id='1594'> +2.6694677e+11 </wgt>
<wgt id='1595'> +2.6389930e+11 </wgt>
<wgt id='1596'> +2.6971496e+11 </wgt>
<wgt id='1597'> +2.6786928e+11 </wgt>
<wgt id='1598'> +2.6809569e+11 </wgt>
<wgt id='1599'> +2.6338949e+11 </wgt>
<wgt id='1600'> +2.7055732e+11 </wgt>
<wgt id='1601'> +2.6827739e+11 </wgt>
<wgt id='1602'> +2.6619127e+11 </wgt>
<wgt id='1603'> +2.7656786e+11 </wgt>
<wgt id='1604'> +2.6616815e+11 </wgt>
</rwgt>
</event>
<event>
 9      1 +2.8343000e+11 1.39999600e+03 7.81738600e-03 7.88881400e-02
       21 -1    0    0  504  503 +0.0000000000e+00 +0.0000000000e+00 +6.9134569856e+02 6.9134569856e+02 0.0000000000e+00 0.0000e+00 1.0000e+00
       21 -1    0    0  503  504 -0.0000000000e+00 -0.0000000000e+00 -7.0875904818e+02 7.0875904818e+02 0.0000000000e+00 0.0000e+00 1.0000e+00
       45  2    1    2    0    0 +2.8421709430e-14 +0.0000000000e+00 -1.7413349618e+01 1.4001047467e+03 1.3999964561e+03 0.0000e+00 0.0000e+00
       25  2    3    3    0    0 -1.9808808151e+02 +3.7259216426e+02 +5.3909291354e+02 6.9592931848e+02 1.2503054822e+02 0.0000e+00 0.0000e+00
       35  2    3    3    0    0 +1.9808808151e+02 -3.7259216426e+02 -5.5650626315e+02 7.0417542826e+02 9.0000021839e+01 0.0000e+00 0.0000e+00
        5  1    5    5  501    0 +1.6257053435e+02 -2.7585623988e+02 -3.5691785154e+02 4.7951428994e+02 4.2140000000e+00 0.0000e+00 1.0000e+00
       -5  1    5    5    0  501 +3.5517547164e+01 -9.6735924386e+01 -1.9958841161e+02 2.2466113832e+02 4.2140000000e+00 0.0000e+00 1.0000e+00
        5  1    4    4  502    0 -1.7880646641e+02 +2.9874183086e+02 +5.0207527288e+02 6.1099572124e+02 4.2140000000e+00 0.0000e+00 1.0000e+00
       -5  1    4    4    0  502 -1.9281615099e+01 +7.3850333405e+01 +3.7017640654e+01 8.4933597242e+01 4.2140000000e+00 0.0000e+00 1.0000e+00
<mgrwt>
<rscale>  0 0.13999965E+04</rscale>
<asrwt>0</asrwt>
<pdfrwt beam="1">  1       21 0.10636088E+00 0.13999965E+04</pdfrwt>
<pdfrwt beam="2">  1       21 0.10903985E+00 0.13999965E+04</pdfrwt>
<totfact> 0.35885094E+02</totfact>
</mgrwt>
<rwgt>
<wgt id='1001'> +2.8343000e+11 </wgt>
<wgt id='1002'> +3.0756633e+11 </wgt>
<wgt id='1003'> +3.0755888e+11 </wgt>
<wgt id='1004'> +3.4660518e+11 </wgt>
<wgt id='1005'> +2.8343000e+11 </wgt>
<wgt id='1006'> +2.8343000e+11 </wgt>
<wgt id='1007'> +3.0756633e+11 </wgt>
<wgt id='1008'> +3.0755888e+11 </wgt>
<wgt id='1009'> +3.4660518e+11 </wgt>
<wgt id='1010'> +2.8343000e+11 </wgt>
<wgt id='1011'> +2.8343000e+11 </wgt>
<wgt id='1012'> +3.0756633e+11 </wgt>
<wgt id='1013'> +3.0755888e+11 </wgt>
<wgt id='1014'> +3.4660518e+11 </wgt>
<wgt id='1015'> +2.8343000e+11 </wgt>
<wgt id='1016'> +2.5470532e+11 </wgt>
<wgt id='1017'> +2.7500293e+11 </wgt>
<wgt id='1018'> +2.7499671e+11 </wgt>
<wgt id='1019'> +3.0755888e+11 </wgt>
<wgt id='1020'> +2.5470532e+11 </wgt>
<wgt id='1021'> +2.5470532e+11 </wgt>
<wgt id='1022'> +2.7500293e+11 </wgt>
<wgt id='1023'> +2.7499671e+11 </wgt>
<wgt id='1024'> +3.0755888e+11 </wgt>
<wgt id='1025'> +2.5470532e+11 </wgt>
<wgt id='1026'> +2.5470532e+11 </wgt>
<wgt id='1027'> +2.7500293e+11 </wgt>
<wgt id='1028'> +2.7499671e+11 </wgt>
<wgt id='1029'> +3.0755888e+11 </wgt>
<wgt id='1030'> +2.5470532e+11 </wgt>
<wgt id='1031'> +3.1765859e+11 </wgt>
<wgt id='1032'> +3.4661413e+11 </wgt>
<wgt id='1033'> +3.4660518e+11 </wgt>
<wgt id='1034'> +3.9400967e+11 </wgt>
<wgt id='1035'> +3.1765860e+11 </wgt>
<wgt id='1036'> +3.1765859e+11 </wgt>
<wgt id='1037'> +3.4661413e+11 </wgt>
<wgt id='1038'> +3.4660518e+11 </wgt>
<wgt id='1039'> +3.9400967e+11 </wgt>
<wgt id='1040'> +3.1765860e+11 </wgt>
<wgt id='1041'> +3.1765859e+11 </wgt>
<wgt id='1042'> +3.4661413e+11 </wgt>
<wgt id='1043'> +3.4660518e+11 </wgt>
<wgt id='1044'> +3.9400967e+11 </wgt>
<wgt id='1045'> +3.1765860e+11 </wgt>
<wgt id='1046'> +2.8343000e+11 </wgt>
<wgt id='1047'> +2.8343000e+11 </wgt>
<wgt id='1048'> +2.8343000e+11 </wgt>
<wgt id='1049'> +2.8225573e+11 </wgt>
<wgt id='1050'> +2.8304278e+11 </wgt>
<wgt id='1051'> +2.8377165e+11 </wgt>
<wgt id='1052'> +2.8419516e+11 </wgt>
<wgt id='1053'> +2.8189649e+11 </wgt>
<wgt id='1054'> +2.8388643e+11 </wgt>
<wgt id='1055'> +2.8224834e+11 </wgt>
<wgt id='1056'> +2.8179617e+11 </wgt>
<wgt id='1057'> +2.8422871e+11 </wgt>
<wgt id='1058'> +2.8305993e+11 </wgt>
<wgt id='1059'> +2.8541431e+11 </wgt>
<wgt id='1060'> +2.8366114e+11 </wgt>
<wgt id='1061'> +2.8421666e+11 </wgt>
<wgt id='1062'> +2.8400388e+11 </wgt>
<wgt id='1063'> +2.8363500e+11 </wgt>
<wgt id='1064'> +2.8471040e+11 </wgt>
<wgt id='1065'> +2.8488034e+11 </wgt>
<wgt id='1066'> +2.8202090e+11 </wgt>
<wgt id='1067'> +2.7964474e+11 </wgt>
<wgt id='1068'> +2.8382981e+11 </wgt>
<wgt id='1069'> +2.8280023e+11 </wgt>
<wgt id='1070'> +2.8340306e+11 </wgt>
<wgt id='1071'> +2.8495506e+11 </wgt>
<wgt id='1072'> +2.8110692e+11 </wgt>
<wgt id='1073'> +2.8412687e+11 </wgt>
<wgt id='1074'> +2.8301995e+11 </wgt>
<wgt id='1075'> +2.8440198e+11 </wgt>
<wgt id='1076'> +2.8330132e+11 </wgt>
<wgt id='1077'> +2.8299748e+11 </wgt>
<wgt id='1078'> +2.8409661e+11 </wgt>
<wgt id='1079'> +2.8176669e+11 </wgt>
<wgt id='1080'> +2.8276056e+11 </wgt>
<wgt id='1081'> +2.8303002e+11 </wgt>
<wgt id='1082'> +2.8203772e+11 </wgt>
<wgt id='1083'> +2.8400208e+11 </wgt>
<wgt id='1084'> +2.8407108e+11 </wgt>
<wgt id='1085'> +2.8285939e+11 </wgt>
<wgt id='1086'> +2.8278604e+11 </wgt>
<wgt id='1087'> +2.8307979e+11 </wgt>
<wgt id='1088'> +2.8293494e+11 </wgt>
<wgt id='1089'> +2.8279753e+11 </wgt>
<wgt id='1090'> +2.8413199e+11 </wgt>
<wgt id='1091'> +2.8348000e+11 </wgt>
<wgt id='1092'> +2.8371082e+11 </wgt>
<wgt id='1093'> +2.8332964e+11 </wgt>
<wgt id='1094'> +2.8292099e+11 </wgt>
<wgt id='1095'> +2.8354444e+11 </wgt>
<wgt id='1096'> +2.8339385e+11 </wgt>
<wgt id='1097'> +2.8303957e+11 </wgt>
<wgt id='1098'> +2.8307660e+11 </wgt>
<wgt id='1099'> +2.8323990e+11 </wgt>
<wgt id='1100'> +2.8402246e+11 </wgt>
<wgt id='1101'> +2.8341446e+11 </wgt>
<wgt id='1102'> +2.8328979e+11 </wgt>
<wgt id='1103'> +2.8310083e+11 </wgt>
<wgt id='1104'> +2.8310268e+11 </wgt>
<wgt id='1105'> +2.8353374e+11 </wgt>
<wgt id='1106'> +2.8377171e+11 </wgt>
<wgt id='1107'> +2.8334644e+11 </wgt>
<wgt id='1108'> +2.8333493e+11 </wgt>
<wgt id='1109'> +2.8324490e+11 </wgt>
<wgt id='1110'> +2.8376158e+11 </wgt>
<wgt id='1111'> +2.8356178e+11 </wgt>
<wgt id='1112'> +2.8339569e+11 </wgt>
<wgt id='1113'> +2.8373596e+11 </wgt>
<wgt id='1114'> +2.8311005e+11 </wgt>
<wgt id='1115'> +2.8326359e+11 </wgt>
<wgt id='1116'> +2.8372857e+11 </wgt>
<wgt id='1117'> +2.8337573e+11 </wgt>
<wgt id='1118'> +2.8353534e+11 </wgt>
<wgt id='1119'> +2.8325672e+11 </wgt>
<wgt id='1120'> +2.8329017e+11 </wgt>
<wgt id='1121'> +2.8350434e+11 </wgt>
<wgt id='1122'> +2.8322663e+11 </wgt>
<wgt id='1123'> +2.8337129e+11 </wgt>
<wgt id='1124'> +2.8332847e+11 </wgt>
<wgt id='1125'> +2.8359101e+11 </wgt>
<wgt id='1126'> +2.8353508e+11 </wgt>
<wgt id='1127'> +2.8332180e+11 </wgt>
<wgt id='1128'> +2.8347631e+11 </wgt>
<wgt id='1129'> +2.8339597e+11 </wgt>
<wgt id='1130'> +2.8346848e+11 </wgt>
<wgt id='1131'> +2.8369070e+11 </wgt>
<wgt id='1132'> +2.8335373e+11 </wgt>
<wgt id='1133'> +2.8350593e+11 </wgt>
<wgt id='1134'> +2.8341210e+11 </wgt>
<wgt id='1135'> +2.8346712e+11 </wgt>
<wgt id='1136'> +2.8340331e+11 </wgt>
<wgt id='1137'> +2.8329156e+11 </wgt>
<wgt id='1138'> +2.8354132e+11 </wgt>
<wgt id='1139'> +2.8346806e+11 </wgt>
<wgt id='1140'> +2.8364366e+11 </wgt>
<wgt id='1141'> +2.8330864e+11 </wgt>
<wgt id='1142'> +2.8349839e+11 </wgt>
<wgt id='1143'> +2.8359093e+11 </wgt>
<wgt id='1144'> +2.8334623e+11 </wgt>
<wgt id='1145'> +2.8355213e+11 </wgt>
<wgt id='1146'> +2.8340863e+11 </wgt>
<wgt id='1147'> +2.8347170e+11 </wgt>
<wgt id='1148'> +2.8343000e+11 </wgt>
<wgt id='1149'> +2.8343000e+11 </wgt>
<wgt id='1150'> +2.9080186e+11 </wgt>
<wgt id='1151'> +2.8134772e+11 </wgt>
<wgt id='1152'> +2.8580436e+11 </wgt>
<wgt id='1153'> +2.8779196e+11 </wgt>
<wgt id='1154'> +2.8760031e+11 </wgt>
<wgt id='1155'> +2.8827749e+11 </wgt>
<wgt id='1156'> +2.7649110e+11 </wgt>
<wgt id='1157'> +2.7679016e+11 </wgt>
<wgt id='1158'> +2.7768133e+11 </wgt>
<wgt id='1159'> +2.9604423e+11 </wgt>
<wgt id='1160'> +2.8146634e+11 </wgt>
<wgt id='1161'> +2.8556830e+11 </wgt>
<wgt id='1162'> +2.7586254e+11 </wgt>
<wgt id='1163'> +2.8691146e+11 </wgt>
<wgt id='1164'> +2.6752440e+11 </wgt>
<wgt id='1165'> +2.7947218e+11 </wgt>
<wgt id='1166'> +2.8513056e+11 </wgt>
<wgt id='1167'> +2.8004451e+11 </wgt>
<wgt id='1168'> +2.7663098e+11 </wgt>
<wgt id='1169'> +2.7600500e+11 </wgt>
<wgt id='1170'> +2.7564152e+11 </wgt>
<wgt id='1171'> +2.7352657e+11 </wgt>
<wgt id='1172'> +2.7765995e+11 </wgt>
<wgt id='1173'> +2.8813317e+11 </wgt>
<wgt id='1174'> +2.7980251e+11 </wgt>
<wgt id='1175'> +2.7511492e+11 </wgt>
<wgt id='1176'> +2.8639336e+11 </wgt>
<wgt id='1177'> +2.7935546e+11 </wgt>
<wgt id='1178'> +2.8318222e+11 </wgt>
<wgt id='1179'> +2.8022930e+11 </wgt>
<wgt id='1180'> +2.8329608e+11 </wgt>
<wgt id='1181'> +2.7577992e+11 </wgt>
<wgt id='1182'> +2.8174731e+11 </wgt>
<wgt id='1183'> +2.9597507e+11 </wgt>
<wgt id='1184'> +2.7559055e+11 </wgt>
<wgt id='1185'> +2.8006810e+11 </wgt>
<wgt id='1186'> +2.7143767e+11 </wgt>
<wgt id='1187'> +2.8583535e+11 </wgt>
<wgt id='1188'> +2.7634436e+11 </wgt>
<wgt id='1189'> +2.8577418e+11 </wgt>
<wgt id='1190'> +2.8436952e+11 </wgt>
<wgt id='1191'> +2.9540611e+11 </wgt>
<wgt id='1192'> +2.9197804e+11 </wgt>
<wgt id='1193'> +2.9554511e+11 </wgt>
<wgt id='1194'> +2.8478624e+11 </wgt>
<wgt id='1195'> +2.8380560e+11 </wgt>
<wgt id='1196'> +2.9241057e+11 </wgt>
<wgt id='1197'> +2.9421251e+11 </wgt>
<wgt id='1198'> +2.7496822e+11 </wgt>
<wgt id='1199'> +2.8162685e+11 </wgt>
<wgt id='1200'> +2.8213324e+11 </wgt>
<wgt id='1201'> +2.7934048e+11 </wgt>
<wgt id='1202'> +2.8874869e+11 </wgt>
<wgt id='1203'> +2.7751697e+11 </wgt>
<wgt id='1204'> +2.8855774e+11 </wgt>
<wgt id='1205'> +2.8522095e+11 </wgt>
<wgt id='1206'> +2.7637950e+11 </wgt>
<wgt id='1207'> +2.9325068e+11 </wgt>
<wgt id='1208'> +2.7298235e+11 </wgt>
<wgt id='1209'> +2.7848481e+11 </wgt>
<wgt id='1210'> +2.8019281e+11 </wgt>
<wgt id='1211'> +2.8571977e+11 </wgt>
<wgt id='1212'> +2.8372964e+11 </wgt>
<wgt id='1213'> +2.9360946e+11 </wgt>
<wgt id='1214'> +2.7570108e+11 </wgt>
<wgt id='1215'> +2.9226359e+11 </wgt>
<wgt id='1216'> +2.8612766e+11 </wgt>
<wgt id='1217'> +2.7590591e+11 </wgt>
<wgt id='1218'> +2.8481468e+11 </wgt>
<wgt id='1219'> +2.9446980e+11 </wgt>
<wgt id='1220'> +2.7700130e+11 </wgt>
<wgt id='1221'> +2.7498277e+11 </wgt>
<wgt id='1222'> +2.8050636e+11 </wgt>
<wgt id='1223'> +2.7259577e+11 </wgt>
<wgt id='1224'> +2.8354907e+11 </wgt>
<wgt id='1225'> +2.8806947e+11 </wgt>
<wgt id='1226'> +2.9084937e+11 </wgt>
<wgt id='1227'> +2.7274788e+11 </wgt>
<wgt id='1228'> +2.8136286e+11 </wgt>
<wgt id='1229'> +3.0288290e+11 </wgt>
<wgt id='1230'> +2.9434565e+11 </wgt>
<wgt id='1231'> +2.7947218e+11 </wgt>
<wgt id='1232'> +2.8924740e+11 </wgt>
<wgt id='1233'> +2.7826272e+11 </wgt>
<wgt id='1234'> +2.7634659e+11 </wgt>
<wgt id='1235'> +3.0321741e+11 </wgt>
<wgt id='1236'> +2.7659886e+11 </wgt>
<wgt id='1237'> +2.8992946e+11 </wgt>
<wgt id='1238'> +2.8994443e+11 </wgt>
<wgt id='1239'> +2.9235208e+11 </wgt>
<wgt id='1240'> +2.8579447e+11 </wgt>
<wgt id='1241'> +2.8193730e+11 </wgt>
<wgt id='1242'> +2.8082437e+11 </wgt>
<wgt id='1243'> +2.8910626e+11 </wgt>
<wgt id='1244'> +2.8115883e+11 </wgt>
<wgt id='1245'> +2.8191695e+11 </wgt>
<wgt id='1246'> +3.0735748e+11 </wgt>
<wgt id='1247'> +2.8384967e+11 </wgt>
<wgt id='1248'> +2.7549148e+11 </wgt>
<wgt id='1249'> +2.7776426e+11 </wgt>
<wgt id='1250'> +2.9211572e+11 </wgt>
<wgt id='1251'> +2.9861709e+11 </wgt>
<wgt id='1252'> +2.8712319e+11 </wgt>
<wgt id='1253'> +2.8510864e+11 </wgt>
<wgt id='1254'> +2.8862422e+11 </wgt>
<wgt id='1255'> +2.9787554e+11 </wgt>
<wgt id='1256'> +2.9497282e+11 </wgt>
<wgt id='1257'> +2.8500830e+11 </wgt>
<wgt id='1258'> +3.0044722e+11 </wgt>
<wgt id='1259'> +2.9454394e+11 </wgt>
<wgt id='1260'> +3.2546046e+11 </wgt>
<wgt id='1261'> +3.1374108e+11 </wgt>
<wgt id='1262'> +2.8951106e+11 </wgt>
<wgt id='1263'> +2.9661691e+11 </wgt>
<wgt id='1264'> +2.9839314e+11 </wgt>
<wgt id='1265'> +2.9878590e+11 </wgt>
<wgt id='1266'> +2.9413485e+11 </wgt>
<wgt id='1267'> +3.1464987e+11 </wgt>
<wgt id='1268'> +2.9429876e+11 </wgt>
<wgt id='1269'> +2.8717544e+11 </wgt>
<wgt id='1270'> +2.9097562e+11 </wgt>
<wgt id='1271'> +2.7971718e+11 </wgt>
<wgt id='1272'> +2.9332109e+11 </wgt>
<wgt id='1273'> +2.9192056e+11 </wgt>
<wgt id='1274'> +2.8768244e+11 </wgt>
<wgt id='1275'> +2.9859138e+11 </wgt>
<wgt id='1276'> +2.9529056e+11 </wgt>
<wgt id='1277'> +2.9067183e+11 </wgt>
<wgt id='1278'> +2.8601311e+11 </wgt>
<wgt id='1279'> +2.8121126e+11 </wgt>
<wgt id='1280'> +2.9412739e+11 </wgt>
<wgt id='1281'> +2.8583709e+11 </wgt>
<wgt id='1282'> +2.9661071e+11 </wgt>
<wgt id='1283'> +2.9590684e+11 </wgt>
<wgt id='1284'> +3.1490256e+11 </wgt>
<wgt id='1285'> +3.0816644e+11 </wgt>
<wgt id='1286'> +3.2862946e+11 </wgt>
<wgt id='1287'> +3.0322662e+11 </wgt>
<wgt id='1288'> +3.2339113e+11 </wgt>
<wgt id='1289'> +3.1293684e+11 </wgt>
<wgt id='1290'> +3.1134794e+11 </wgt>
<wgt id='1291'> +2.7787543e+11 </wgt>
<wgt id='1292'> +2.9724106e+11 </wgt>
<wgt id='1293'> +3.0001413e+11 </wgt>
<wgt id='1294'> +3.1420051e+11 </wgt>
<wgt id='1295'> +2.9765606e+11 </wgt>
<wgt id='1296'> +3.1505199e+11 </wgt>
<wgt id='1297'> +2.9557501e+11 </wgt>
<wgt id='1298'> +2.8774760e+11 </wgt>
<wgt id='1299'> +2.9839964e+11 </wgt>
<wgt id='1300'> +2.8793232e+11 </wgt>
<wgt id='1301'> +2.8103088e+11 </wgt>
<wgt id='1302'> +2.7520132e+11 </wgt>
<wgt id='1303'> +2.9825937e+11 </wgt>
<wgt id='1304'> +3.0554587e+11 </wgt>
<wgt id='1305'> +2.9827251e+11 </wgt>
<wgt id='1306'> +3.0512414e+11 </wgt>
<wgt id='1307'> +3.0403919e+11 </wgt>
<wgt id='1308'> +3.2515463e+11 </wgt>
<wgt id='1309'> +2.9564869e+11 </wgt>
<wgt id='1310'> +3.0213586e+11 </wgt>
<wgt id='1311'> +3.0818499e+11 </wgt>
<wgt id='1312'> +2.9887992e+11 </wgt>
<wgt id='1313'> +2.9667966e+11 </wgt>
<wgt id='1314'> +3.0437359e+11 </wgt>
<wgt id='1315'> +2.8476910e+11 </wgt>
<wgt id='1316'> +2.9841865e+11 </wgt>
<wgt id='1317'> +3.0111464e+11 </wgt>
<wgt id='1318'> +2.8600497e+11 </wgt>
<wgt id='1319'> +3.0805270e+11 </wgt>
<wgt id='1320'> +3.0879619e+11 </wgt>
<wgt id='1321'> +2.9362727e+11 </wgt>
<wgt id='1322'> +2.9773904e+11 </wgt>
<wgt id='1323'> +2.9876718e+11 </wgt>
<wgt id='1324'> +3.0113409e+11 </wgt>
<wgt id='1325'> +3.1084395e+11 </wgt>
<wgt id='1326'> +3.0258699e+11 </wgt>
<wgt id='1327'> +2.9298400e+11 </wgt>
<wgt id='1328'> +3.0284360e+11 </wgt>
<wgt id='1329'> +2.9768508e+11 </wgt>
<wgt id='1330'> +2.9081738e+11 </wgt>
<wgt id='1331'> +3.1909140e+11 </wgt>
<wgt id='1332'> +2.8577609e+11 </wgt>
<wgt id='1333'> +3.0041927e+11 </wgt>
<wgt id='1334'> +3.1380176e+11 </wgt>
<wgt id='1335'> +2.9242565e+11 </wgt>
<wgt id='1336'> +3.0191612e+11 </wgt>
<wgt id='1337'> +3.0841806e+11 </wgt>
<wgt id='1338'> +2.8983082e+11 </wgt>
<wgt id='1339'> +3.2038860e+11 </wgt>
<wgt id='1340'> +3.0151418e+11 </wgt>
<wgt id='1341'> +3.0445628e+11 </wgt>
<wgt id='1342'> +3.1589679e+11 </wgt>
<wgt id='1343'> +3.1027841e+11 </wgt>
<wgt id='1344'> +3.0293627e+11 </wgt>
<wgt id='1345'> +2.8040721e+11 </wgt>
<wgt id='1346'> +2.9934296e+11 </wgt>
<wgt id='1347'> +2.8664485e+11 </wgt>
<wgt id='1348'> +2.8791144e+11 </wgt>
<wgt id='1349'> +2.8994945e+11 </wgt>
<wgt id='1350'> +3.0023874e+11 </wgt>
<wgt id='1351'> +2.9688191e+11 </wgt>
<wgt id='1352'> +3.0033870e+11 </wgt>
<wgt id='1353'> +2.9702701e+11 </wgt>
<wgt id='1354'> +3.0681598e+11 </wgt>
<wgt id='1355'> +2.7540806e+11 </wgt>
<wgt id='1356'> +2.7816523e+11 </wgt>
<wgt id='1357'> +2.7633014e+11 </wgt>
<wgt id='1358'> +2.7279697e+11 </wgt>
<wgt id='1359'> +2.7619487e+11 </wgt>
<wgt id='1360'> +2.6855990e+11 </wgt>
<wgt id='1361'> +2.7548670e+11 </wgt>
<wgt id='1362'> +2.7707302e+11 </wgt>
<wgt id='1363'> +2.6918122e+11 </wgt>
<wgt id='1364'> +2.8175130e+11 </wgt>
<wgt id='1365'> +2.7307495e+11 </wgt>
<wgt id='1366'> +2.7567861e+11 </wgt>
<wgt id='1367'> +2.7627491e+11 </wgt>
<wgt id='1368'> +2.7543273e+11 </wgt>
<wgt id='1369'> +2.7980973e+11 </wgt>
<wgt id='1370'> +2.7353022e+11 </wgt>
<wgt id='1371'> +2.7296662e+11 </wgt>
<wgt id='1372'> +2.7998326e+11 </wgt>
<wgt id='1373'> +2.7907705e+11 </wgt>
<wgt id='1374'> +2.6730924e+11 </wgt>
<wgt id='1375'> +2.7422838e+11 </wgt>
<wgt id='1376'> +2.7636551e+11 </wgt>
<wgt id='1377'> +2.7528207e+11 </wgt>
<wgt id='1378'> +2.7109803e+11 </wgt>
<wgt id='1379'> +2.7387631e+11 </wgt>
<wgt id='1380'> +2.7386936e+11 </wgt>
<wgt id='1381'> +2.8073558e+11 </wgt>
<wgt id='1382'> +2.7505686e+11 </wgt>
<wgt id='1383'> +2.7545124e+11 </wgt>
<wgt id='1384'> +2.7382329e+11 </wgt>
<wgt id='1385'> +2.7403413e+11 </wgt>
<wgt id='1386'> +2.7746617e+11 </wgt>
<wgt id='1387'> +2.7443629e+11 </wgt>
<wgt id='1388'> +2.7175103e+11 </wgt>
<wgt id='1389'> +2.7366491e+11 </wgt>
<wgt id='1390'> +2.7424530e+11 </wgt>
<wgt id='1391'> +2.7314552e+11 </wgt>
<wgt id='1392'> +2.7325659e+11 </wgt>
<wgt id='1393'> +2.7331272e+11 </wgt>
<wgt id='1394'> +2.7308578e+11 </wgt>
<wgt id='1395'> +2.7117858e+11 </wgt>
<wgt id='1396'> +2.7647043e+11 </wgt>
<wgt id='1397'> +2.7599358e+11 </wgt>
<wgt id='1398'> +2.7599200e+11 </wgt>
<wgt id='1399'> +2.7095068e+11 </wgt>
<wgt id='1400'> +2.7252296e+11 </wgt>
<wgt id='1401'> +2.7383432e+11 </wgt>
<wgt id='1402'> +2.7868007e+11 </wgt>
<wgt id='1403'> +2.7838981e+11 </wgt>
<wgt id='1404'> +2.7305797e+11 </wgt>
<wgt id='1405'> +2.8151990e+11 </wgt>
<wgt id='1406'> +2.7508588e+11 </wgt>
<wgt id='1407'> +2.7613803e+11 </wgt>
<wgt id='1408'> +2.7852380e+11 </wgt>
<wgt id='1409'> +2.7338153e+11 </wgt>
<wgt id='1410'> +2.7328272e+11 </wgt>
<wgt id='1411'> +2.7508835e+11 </wgt>
<wgt id='1412'> +2.7434787e+11 </wgt>
<wgt id='1413'> +2.7230365e+11 </wgt>
<wgt id='1414'> +2.7707154e+11 </wgt>
<wgt id='1415'> +2.8129572e+11 </wgt>
<wgt id='1416'> +2.7858411e+11 </wgt>
<wgt id='1417'> +2.6858697e+11 </wgt>
<wgt id='1418'> +2.7713692e+11 </wgt>
<wgt id='1419'> +2.7891941e+11 </wgt>
<wgt id='1420'> +2.7466712e+11 </wgt>
<wgt id='1421'> +2.8146096e+11 </wgt>
<wgt id='1422'> +2.6778032e+11 </wgt>
<wgt id='1423'> +2.8066578e+11 </wgt>
<wgt id='1424'> +2.7640506e+11 </wgt>
<wgt id='1425'> +2.7559189e+11 </wgt>
<wgt id='1426'> +2.7903336e+11 </wgt>
<wgt id='1427'> +2.7538484e+11 </wgt>
<wgt id='1428'> +2.7527879e+11 </wgt>
<wgt id='1429'> +2.7109728e+11 </wgt>
<wgt id='1430'> +2.7062953e+11 </wgt>
<wgt id='1431'> +2.7075046e+11 </wgt>
<wgt id='1432'> +2.7743831e+11 </wgt>
<wgt id='1433'> +2.7615038e+11 </wgt>
<wgt id='1434'> +2.8203828e+11 </wgt>
<wgt id='1435'> +2.7455892e+11 </wgt>
<wgt id='1436'> +2.7961044e+11 </wgt>
<wgt id='1437'> +2.7821483e+11 </wgt>
<wgt id='1438'> +2.7338796e+11 </wgt>
<wgt id='1439'> +2.7600036e+11 </wgt>
<wgt id='1440'> +2.8008390e+11 </wgt>
<wgt id='1441'> +2.7542566e+11 </wgt>
<wgt id='1442'> +2.8316826e+11 </wgt>
<wgt id='1443'> +2.7360337e+11 </wgt>
<wgt id='1444'> +2.7357680e+11 </wgt>
<wgt id='1445'> +2.7845722e+11 </wgt>
<wgt id='1446'> +2.7750722e+11 </wgt>
<wgt id='1447'> +2.7134580e+11 </wgt>
<wgt id='1448'> +2.7776128e+11 </wgt>
<wgt id='1449'> +2.7667801e+11 </wgt>
<wgt id='1450'> +2.7346614e+11 </wgt>
<wgt id='1451'> +2.7663306e+11 </wgt>
<wgt id='1452'> +2.7865368e+11 </wgt>
<wgt id='1453'> +2.8062910e+11 </wgt>
<wgt id='1454'> +2.6883136e+11 </wgt>
<wgt id='1455'> +2.7466259e+11 </wgt>
<wgt id='1456'> +2.7465242e+11 </wgt>
<wgt id='1457'> +2.7417948e+11 </wgt>
<wgt id='1458'> +2.7719700e+11 </wgt>
<wgt id='1459'> +3.0509949e+11 </wgt>
<wgt id='1460'> +3.0042548e+11 </wgt>
<wgt id='1461'> +3.4719631e+11 </wgt>
<wgt id='1462'> +2.9973503e+11 </wgt>
<wgt id='1463'> +2.9998597e+11 </wgt>
<wgt id='1464'> +2.9941322e+11 </wgt>
<wgt id='1465'> +2.9979628e+11 </wgt>
<wgt id='1466'> +2.9967907e+11 </wgt>
<wgt id='1467'> +2.9989969e+11 </wgt>
<wgt id='1468'> +2.9946488e+11 </wgt>
<wgt id='1469'> +2.9928376e+11 </wgt>
<wgt id='1470'> +3.0010156e+11 </wgt>
<wgt id='1471'> +3.0021479e+11 </wgt>
<wgt id='1472'> +2.9924090e+11 </wgt>
<wgt id='1473'> +3.0088436e+11 </wgt>
<wgt id='1474'> +2.9863112e+11 </wgt>
<wgt id='1475'> +3.0083254e+11 </wgt>
<wgt id='1476'> +2.9895691e+11 </wgt>
<wgt id='1477'> +2.9916043e+11 </wgt>
<wgt id='1478'> +3.0107724e+11 </wgt>
<wgt id='1479'> +2.9915149e+11 </wgt>
<wgt id='1480'> +3.0014224e+11 </wgt>
<wgt id='1481'> +2.9931654e+11 </wgt>
<wgt id='1482'> +3.0029932e+11 </wgt>
<wgt id='1483'> +2.9983398e+11 </wgt>
<wgt id='1484'> +2.9959445e+11 </wgt>
<wgt id='1485'> +2.9993557e+11 </wgt>
<wgt id='1486'> +2.9925208e+11 </wgt>
<wgt id='1487'> +2.9998223e+11 </wgt>
<wgt id='1488'> +2.9942393e+11 </wgt>
<wgt id='1489'> +2.9938429e+11 </wgt>
<wgt id='1490'> +3.0068584e+11 </wgt>
<wgt id='1491'> +3.0465461e+11 </wgt>
<wgt id='1492'> +2.9698895e+11 </wgt>
<wgt id='1493'> +2.9624138e+11 </wgt>
<wgt id='1494'> +3.1068365e+11 </wgt>
<wgt id='1495'> +2.9910634e+11 </wgt>
<wgt id='1496'> +3.0040932e+11 </wgt>
<wgt id='1497'> +2.9993394e+11 </wgt>
<wgt id='1498'> +2.9946318e+11 </wgt>
<wgt id='1499'> +3.0159746e+11 </wgt>
<wgt id='1500'> +2.9871608e+11 </wgt>
<wgt id='1501'> +3.0020278e+11 </wgt>
<wgt id='1502'> +2.9849525e+11 </wgt>
<wgt id='1503'> +2.9662813e+11 </wgt>
<wgt id='1504'> +3.0302502e+11 </wgt>
<wgt id='1505'> +3.0077289e+11 </wgt>
<wgt id='1506'> +2.9873927e+11 </wgt>
<wgt id='1507'> +3.0097960e+11 </wgt>
<wgt id='1508'> +2.9913558e+11 </wgt>
<wgt id='1509'> +3.0030257e+11 </wgt>
<wgt id='1510'> +2.9729970e+11 </wgt>
<wgt id='1511'> +3.0083814e+11 </wgt>
<wgt id='1512'> +2.9942588e+11 </wgt>
<wgt id='1513'> +2.9965733e+11 </wgt>
<wgt id='1514'> +2.9980406e+11 </wgt>
<wgt id='1515'> +3.0210490e+11 </wgt>
<wgt id='1516'> +3.0022039e+11 </wgt>
<wgt id='1517'> +2.9936691e+11 </wgt>
<wgt id='1518'> +3.0003006e+11 </wgt>
<wgt id='1519'> +2.9812035e+11 </wgt>
<wgt id='1520'> +3.0088447e+11 </wgt>
<wgt id='1521'> +2.9898365e+11 </wgt>
<wgt id='1522'> +3.0018756e+11 </wgt>
<wgt id='1523'> +3.0110956e+11 </wgt>
<wgt id='1524'> +3.0107842e+11 </wgt>
<wgt id='1525'> +3.0099124e+11 </wgt>
<wgt id='1526'> +3.0049120e+11 </wgt>
<wgt id='1527'> +2.9973503e+11 </wgt>
<wgt id='1528'> +2.9958445e+11 </wgt>
<wgt id='1529'> +2.9935134e+11 </wgt>
<wgt id='1530'> +2.9558051e+11 </wgt>
<wgt id='1531'> +2.9659147e+11 </wgt>
<wgt id='1532'> +2.9420207e+11 </wgt>
<wgt id='1533'> +2.9222251e+11 </wgt>
<wgt id='1534'> +2.9497896e+11 </wgt>
<wgt id='1535'> +2.9906377e+11 </wgt>
<wgt id='1536'> +2.9349415e+11 </wgt>
<wgt id='1537'> +2.9647925e+11 </wgt>
<wgt id='1538'> +2.9342710e+11 </wgt>
<wgt id='1539'> +3.0284598e+11 </wgt>
<wgt id='1540'> +2.9570883e+11 </wgt>
<wgt id='1541'> +2.9666037e+11 </wgt>
<wgt id='1542'> +2.9648904e+11 </wgt>
<wgt id='1543'> +2.9760832e+11 </wgt>
<wgt id='1544'> +2.9469137e+11 </wgt>
<wgt id='1545'> +2.9463793e+11 </wgt>
<wgt id='1546'> +2.9269817e+11 </wgt>
<wgt id='1547'> +2.9888203e+11 </wgt>
<wgt id='1548'> +2.9457434e+11 </wgt>
<wgt id='1549'> +2.9326586e+11 </wgt>
<wgt id='1550'> +2.9717087e+11 </wgt>
<wgt id='1551'> +2.9724185e+11 </wgt>
<wgt id='1552'> +2.9589704e+11 </wgt>
<wgt id='1553'> +2.9836231e+11 </wgt>
<wgt id='1554'> +2.9642965e+11 </wgt>
<wgt id='1555'> +2.9718618e+11 </wgt>
<wgt id='1556'> +2.9894768e+11 </wgt>
<wgt id='1557'> +2.9591991e+11 </wgt>
<wgt id='1558'> +2.9656130e+11 </wgt>
<wgt id='1559'> +2.9458253e+11 </wgt>
<wgt id='1560'> +2.9538087e+11 </wgt>
<wgt id='1561'> +2.9260833e+11 </wgt>
<wgt id='1562'> +2.9514700e+11 </wgt>
<wgt id='1563'> +2.9650620e+11 </wgt>
<wgt id='1564'> +2.9621402e+11 </wgt>
<wgt id='1565'> +2.9879187e+11 </wgt>
<wgt id='1566'> +2.9690535e+11 </wgt>
<wgt id='1567'> +3.0016365e+11 </wgt>
<wgt id='1568'> +2.9653673e+11 </wgt>
<wgt id='1569'> +2.9622982e+11 </wgt>
<wgt id='1570'> +2.9795119e+11 </wgt>
<wgt id='1571'> +2.9638935e+11 </wgt>
<wgt id='1572'> +2.9827083e+11 </wgt>
<wgt id='1573'> +2.9934606e+11 </wgt>
<wgt id='1574'> +2.6345243e+11 </wgt>
<wgt id='1575'> +2.6352431e+11 </wgt>
<wgt id='1576'> +2.6338488e+11 </wgt>
<wgt id='1577'> +2.6347062e+11 </wgt>
<wgt id='1578'> +2.6405957e+11 </wgt>
<wgt id='1579'> +2.6431957e+11 </wgt>
<wgt id='1580'> +2.6409160e+11 </wgt>
<wgt id='1581'> +2.6282407e+11 </wgt>
<wgt id='1582'> +2.6251633e+11 </wgt>
<wgt id='1583'> +2.6301780e+11 </wgt>
<wgt id='1584'> +2.6402815e+11 </wgt>
<wgt id='1585'> +2.6363944e+11 </wgt>
<wgt id='1586'> +2.6242570e+11 </wgt>
<wgt id='1587'> +2.6268298e+11 </wgt>
<wgt id='1588'> +2.6217935e+11 </wgt>
<wgt id='1589'> +2.6320528e+11 </wgt>
<wgt id='1590'> +2.6326308e+11 </wgt>
<wgt id='1591'> +2.6351960e+11 </wgt>
<wgt id='1592'> +2.6242142e+11 </wgt>
<wgt id='1593'> +2.6259372e+11 </wgt>
<wgt id='1594'> +2.6425872e+11 </wgt>
<wgt id='1595'> +2.6123340e+11 </wgt>
<wgt id='1596'> +2.6700958e+11 </wgt>
<wgt id='1597'> +2.6517904e+11 </wgt>
<wgt id='1598'> +2.6540846e+11 </wgt>
<wgt id='1599'> +2.6072297e+11 </wgt>
<wgt id='1600'> +2.6785716e+11 </wgt>
<wgt id='1601'> +2.6559342e+11 </wgt>
<wgt id='1602'> +2.6350970e+11 </wgt>
<wgt id='1603'> +2.7374197e+11 </wgt>
<wgt id='1604'> +2.6353701e+11 </wgt>
</rwgt>
</event>
<event>
 9      1 +2.8343000e+11 1.40000500e+03 7.81738600e-03 7.88880900e-02
       21 -1    0    0  504  503 +0.0000000000e+00 +0.0000000000e+00 +7.1172010284e+02 7.1172010284e+02 0.0000000000e+00 0.0000e+00 1.0000e+00
       21 -1    0    0  503  504 -0.0000000000e+00 -0.0000000000e+00 -6.8847760497e+02 6.8847760497e+02 0.0000000000e+00 0.0000e+00 1.0000e+00
       45  2    1    2    0    0 +1.1368683772e-13 +0.0000000000e+00 +2.3242497866e+01 1.4001977078e+03 1.4000047883e+03 0.0000e+00 0.0000e+00
       25  2    3    3    0    0 -6.0359221750e+02 -2.8915537995e+02 -1.6217934250e+02 6.9990106024e+02 1.2499982485e+02 0.0000e+00 0.0000e+00
       35  2    3    3    0    0 +6.0359221750e+02 +2.8915537995e+02 +1.8542184037e+02 7.0029664757e+02 8.9998538515e+01 0.0000e+00 0.0000e+00
        5  1    5    5  501    0 +4.9960732489e+02 +2.6303055935e+02 +1.8089322654e+02 5.9290190710e+02 4.2140000000e+00 0.0000e+00 1.0000e+00
       -5  1    5    5    0  501 +1.0398489261e+02 +2.6124820603e+01 +4.5286138264e+00 1.0739474047e+02 4.2140000000e+00 0.0000e+00 1.0000e+00
        5  1    4    4  502    0 -1.9597936394e+02 -9.9403258836e+01 +5.9281589160e+00 2.1986773256e+02 4.2140000000e+00 0.0000e+00 -1.0000e+00
       -5  1    4    4    0  502 -4.0761285356e+02 -1.8975212111e+02 -1.6810750142e+02 4.8003332768e+02 4.2140000000e+00 0.0000e+00 -1.0000e+00
<mgrwt>
<rscale>  0 0.14000048E+04</rscale>
<asrwt>0</asrwt>
<pdfrwt beam="1">  1       21 0.10949540E+00 0.14000048E+04</pdfrwt>
<pdfrwt beam="2">  1       21 0.10591963E+00 0.14000048E+04</pdfrwt>
<totfact> 0.35879749E+02</totfact>
</mgrwt>
<rwgt>
<wgt id='1001'> +2.8343000e+11 </wgt>
<wgt id='1002'> +2.8536204e+11 </wgt>
<wgt id='1003'> +2.8536191e+11 </wgt>
<wgt id='1004'> +3.1997784e+11 </wgt>
<wgt id='1005'> +2.8343000e+11 </wgt>
<wgt id='1006'> +2.8343000e+11 </wgt>
<wgt id='1007'> +2.8536204e+11 </wgt>
<wgt id='1008'> +2.8536191e+11 </wgt>
<wgt id='1009'> +3.1997784e+11 </wgt>
<wgt id='1010'> +2.8343000e+11 </wgt>
<wgt id='1011'> +2.8343000e+11 </wgt>
<wgt id='1012'> +2.8536204e+11 </wgt>
<wgt id='1013'> +2.8536191e+11 </wgt>
<wgt id='1014'> +3.1997784e+11 </wgt>
<wgt id='1015'> +2.8343000e+11 </wgt>
<wgt id='1016'> +2.5470467e+11 </wgt>
<wgt id='1017'> +2.5634226e+11 </wgt>
<wgt id='1018'> +2.5634215e+11 </wgt>
<wgt id='1019'> +2.8536191e+11 </wgt>
<wgt id='1020'> +2.5470467e+11 </wgt>
<wgt id='1021'> +2.5470467e+11 </wgt>
<wgt id='1022'> +2.5634226e+11 </wgt>
<wgt id='1023'> +2.5634215e+11 </wgt>
<wgt id='1024'> +2.8536191e+11 </wgt>
<wgt id='1025'> +2.5470467e+11 </wgt>
<wgt id='1026'> +2.5470467e+11 </wgt>
<wgt id='1027'> +2.5634226e+11 </wgt>
<wgt id='1028'> +2.5634215e+11 </wgt>
<wgt id='1029'> +2.8536191e+11 </wgt>
<wgt id='1030'> +2.5470467e+11 </wgt>
<wgt id='1031'> +3.1765947e+11 </wgt>
<wgt id='1032'> +3.1997800e+11 </wgt>
<wgt id='1033'> +3.1997784e+11 </wgt>
<wgt id='1034'> +3.6160047e+11 </wgt>
<wgt id='1035'> +3.1765947e+11 </wgt>
<wgt id='1036'> +3.1765947e+11 </wgt>
<wgt id='1037'> +3.1997800e+11 </wgt>
<wgt id='1038'> +3.1997784e+11 </wgt>
<wgt id='1039'> +3.6160047e+11 </wgt>
<wgt id='1040'> +3.1765947e+11 </wgt>
<wgt id='1041'> +3.1765947e+11 </wgt>
<wgt id='1042'> +3.1997800e+11 </wgt>
<wgt id='1043'> +3.1997784e+11 </wgt>
<wgt id='1044'> +3.6160047e+11 </wgt>
<wgt id='1045'> +3.1765947e+11 </wgt>
<wgt id='1046'> +2.8343000e+11 </wgt>
<wgt id='1047'> +2.8343000e+11 </wgt>
<wgt id='1048'> +2.8343000e+11 </wgt>
<wgt id='1049'> +2.8225610e+11 </wgt>
<wgt id='1050'> +2.8304298e+11 </wgt>
<wgt id='1051'> +2.8377113e+11 </wgt>
<wgt id='1052'> +2.8419538e+11 </wgt>
<wgt id='1053'> +2.8189632e+11 </wgt>
<wgt id='1054'> +2.8388630e+11 </wgt>
<wgt id='1055'> +2.8224834e+11 </wgt>
<wgt id='1056'> +2.8179647e+11 </wgt>
<wgt id='1057'> +2.8422829e+11 </wgt>
<wgt id='1058'> +2.8305976e+11 </wgt>
<wgt id='1059'> +2.8541425e+11 </wgt>
<wgt id='1060'> +2.8366118e+11 </wgt>
<wgt id='1061'> +2.8421642e+11 </wgt>
<wgt id='1062'> +2.8400408e+11 </wgt>
<wgt id='1063'> +2.8363556e+11 </wgt>
<wgt id='1064'> +2.8470996e+11 </wgt>
<wgt id='1065'> +2.8488015e+11 </wgt>
<wgt id='1066'> +2.8202017e+11 </wgt>
<wgt id='1067'> +2.7964611e+11 </wgt>
<wgt id='1068'> +2.8382929e+11 </wgt>
<wgt id='1069'> +2.8279991e+11 </wgt>
<wgt id='1070'> +2.8340356e+11 </wgt>
<wgt id='1071'> +2.8495382e+11 </wgt>
<wgt id='1072'> +2.8110731e+11 </wgt>
<wgt id='1073'> +2.8412657e+11 </wgt>
<wgt id='1074'> +2.8302058e+11 </wgt>
<wgt id='1075'> +2.8440221e+11 </wgt>
<wgt id='1076'> +2.8329966e+11 </wgt>
<wgt id='1077'> +2.8299666e+11 </wgt>
<wgt id='1078'> +2.8409669e+11 </wgt>
<wgt id='1079'> +2.8176708e+11 </wgt>
<wgt id='1080'> +2.8276084e+11 </wgt>
<wgt id='1081'> +2.8302987e+11 </wgt>
<wgt id='1082'> +2.8203784e+11 </wgt>
<wgt id='1083'> +2.8400193e+11 </wgt>
<wgt id='1084'> +2.8407102e+11 </wgt>
<wgt id='1085'> +2.8285931e+11 </wgt>
<wgt id='1086'> +2.8278638e+11 </wgt>
<wgt id='1087'> +2.8307979e+11 </wgt>
<wgt id='1088'> +2.8293500e+11 </wgt>
<wgt id='1089'> +2.8279748e+11 </wgt>
<wgt id='1090'> +2.8413204e+11 </wgt>
<wgt id='1091'> +2.8348016e+11 </wgt>
<wgt id='1092'> +2.8371068e+11 </wgt>
<wgt id='1093'> +2.8332960e+11 </wgt>
<wgt id='1094'> +2.8292073e+11 </wgt>
<wgt id='1095'> +2.8354449e+11 </wgt>
<wgt id='1096'> +2.8339373e+11 </wgt>
<wgt id='1097'> +2.8303954e+11 </wgt>
<wgt id='1098'> +2.8307661e+11 </wgt>
<wgt id='1099'> +2.8323976e+11 </wgt>
<wgt id='1100'> +2.8402243e+11 </wgt>
<wgt id='1101'> +2.8341443e+11 </wgt>
<wgt id='1102'> +2.8328971e+11 </wgt>
<wgt id='1103'> +2.8310083e+11 </wgt>
<wgt id='1104'> +2.8310269e+11 </wgt>
<wgt id='1105'> +2.8353382e+11 </wgt>
<wgt id='1106'> +2.8377163e+11 </wgt>
<wgt id='1107'> +2.8334636e+11 </wgt>
<wgt id='1108'> +2.8333495e+11 </wgt>
<wgt id='1109'> +2.8324482e+11 </wgt>
<wgt id='1110'> +2.8376155e+11 </wgt>
<wgt id='1111'> +2.8356176e+11 </wgt>
<wgt id='1112'> +2.8339570e+11 </wgt>
<wgt id='1113'> +2.8373600e+11 </wgt>
<wgt id='1114'> +2.8311006e+11 </wgt>
<wgt id='1115'> +2.8326346e+11 </wgt>
<wgt id='1116'> +2.8372869e+11 </wgt>
<wgt id='1117'> +2.8337570e+11 </wgt>
<wgt id='1118'> +2.8353532e+11 </wgt>
<wgt id='1119'> +2.8325665e+11 </wgt>
<wgt id='1120'> +2.8329009e+11 </wgt>
<wgt id='1121'> +2.8350422e+11 </wgt>
<wgt id='1122'> +2.8322663e+11 </wgt>
<wgt id='1123'> +2.8337133e+11 </wgt>
<wgt id='1124'> +2.8332861e+11 </wgt>
<wgt id='1125'> +2.8359101e+11 </wgt>
<wgt id='1126'> +2.8353510e+11 </wgt>
<wgt id='1127'> +2.8332181e+11 </wgt>
<wgt id='1128'> +2.8347625e+11 </wgt>
<wgt id='1129'> +2.8339588e+11 </wgt>
<wgt id='1130'> +2.8346843e+11 </wgt>
<wgt id='1131'> +2.8369080e+11 </wgt>
<wgt id='1132'> +2.8335372e+11 </wgt>
<wgt id='1133'> +2.8350594e+11 </wgt>
<wgt id='1134'> +2.8341206e+11 </wgt>
<wgt id='1135'> +2.8346714e+11 </wgt>
<wgt id='1136'> +2.8340326e+11 </wgt>
<wgt id='1137'> +2.8329149e+11 </wgt>
<wgt id='1138'> +2.8354135e+11 </wgt>
<wgt id='1139'> +2.8346805e+11 </wgt>
<wgt id='1140'> +2.8364365e+11 </wgt>
<wgt id='1141'> +2.8330858e+11 </wgt>
<wgt id='1142'> +2.8349840e+11 </wgt>
<wgt id='1143'> +2.8359098e+11 </wgt>
<wgt id='1144'> +2.8334622e+11 </wgt>
<wgt id='1145'> +2.8355215e+11 </wgt>
<wgt id='1146'> +2.8340865e+11 </wgt>
<wgt id='1147'> +2.8347174e+11 </wgt>
<wgt id='1148'> +2.8343000e+11 </wgt>
<wgt id='1149'> +2.8343000e+11 </wgt>
<wgt id='1150'> +2.9080833e+11 </wgt>
<wgt id='1151'> +2.8134529e+11 </wgt>
<wgt id='1152'> +2.8579856e+11 </wgt>
<wgt id='1153'> +2.8779065e+11 </wgt>
<wgt id='1154'> +2.8759741e+11 </wgt>
<wgt id='1155'> +2.8827962e+11 </wgt>
<wgt id='1156'> +2.7649163e+11 </wgt>
<wgt id='1157'> +2.7678768e+11 </wgt>
<wgt id='1158'> +2.7768067e+11 </wgt>
<wgt id='1159'> +2.9604766e+11 </wgt>
<wgt id='1160'> +2.8146846e+11 </wgt>
<wgt id='1161'> +2.8556786e+11 </wgt>
<wgt id='1162'> +2.7586970e+11 </wgt>
<wgt id='1163'> +2.8691052e+11 </wgt>
<wgt id='1164'> +2.6752629e+11 </wgt>
<wgt id='1165'> +2.7947002e+11 </wgt>
<wgt id='1166'> +2.8512872e+11 </wgt>
<wgt id='1167'> +2.8004252e+11 </wgt>
<wgt id='1168'> +2.7662960e+11 </wgt>
<wgt id='1169'> +2.7600444e+11 </wgt>
<wgt id='1170'> +2.7564788e+11 </wgt>
<wgt id='1171'> +2.7352575e+11 </wgt>
<wgt id='1172'> +2.7765817e+11 </wgt>
<wgt id='1173'> +2.8813099e+11 </wgt>
<wgt id='1174'> +2.7980026e+11 </wgt>
<wgt id='1175'> +2.7511679e+11 </wgt>
<wgt id='1176'> +2.8639361e+11 </wgt>
<wgt id='1177'> +2.7935381e+11 </wgt>
<wgt id='1178'> +2.8318177e+11 </wgt>
<wgt id='1179'> +2.8022994e+11 </wgt>
<wgt id='1180'> +2.8330417e+11 </wgt>
<wgt id='1181'> +2.7578907e+11 </wgt>
<wgt id='1182'> +2.8174560e+11 </wgt>
<wgt id='1183'> +2.9597126e+11 </wgt>
<wgt id='1184'> +2.7559972e+11 </wgt>
<wgt id='1185'> +2.8007687e+11 </wgt>
<wgt id='1186'> +2.7144138e+11 </wgt>
<wgt id='1187'> +2.8583389e+11 </wgt>
<wgt id='1188'> +2.7635675e+11 </wgt>
<wgt id='1189'> +2.8577143e+11 </wgt>
<wgt id='1190'> +2.8436728e+11 </wgt>
<wgt id='1191'> +2.9540284e+11 </wgt>
<wgt id='1192'> +2.9197610e+11 </wgt>
<wgt id='1193'> +2.9554249e+11 </wgt>
<wgt id='1194'> +2.8478371e+11 </wgt>
<wgt id='1195'> +2.8380510e+11 </wgt>
<wgt id='1196'> +2.9241009e+11 </wgt>
<wgt id='1197'> +2.9421046e+11 </wgt>
<wgt id='1198'> +2.7497429e+11 </wgt>
<wgt id='1199'> +2.8163200e+11 </wgt>
<wgt id='1200'> +2.8213595e+11 </wgt>
<wgt id='1201'> +2.7934050e+11 </wgt>
<wgt id='1202'> +2.8874756e+11 </wgt>
<wgt id='1203'> +2.7751863e+11 </wgt>
<wgt id='1204'> +2.8855411e+11 </wgt>
<wgt id='1205'> +2.8521932e+11 </wgt>
<wgt id='1206'> +2.7638120e+11 </wgt>
<wgt id='1207'> +2.9324932e+11 </wgt>
<wgt id='1208'> +2.7298008e+11 </wgt>
<wgt id='1209'> +2.7848743e+11 </wgt>
<wgt id='1210'> +2.8019583e+11 </wgt>
<wgt id='1211'> +2.8571999e+11 </wgt>
<wgt id='1212'> +2.8372895e+11 </wgt>
<wgt id='1213'> +2.9360687e+11 </wgt>
<wgt id='1214'> +2.7570131e+11 </wgt>
<wgt id='1215'> +2.9225970e+11 </wgt>
<wgt id='1216'> +2.8612619e+11 </wgt>
<wgt id='1217'> +2.7590613e+11 </wgt>
<wgt id='1218'> +2.8481426e+11 </wgt>
<wgt id='1219'> +2.9446924e+11 </wgt>
<wgt id='1220'> +2.7700249e+11 </wgt>
<wgt id='1221'> +2.7498386e+11 </wgt>
<wgt id='1222'> +2.8050463e+11 </wgt>
<wgt id='1223'> +2.7259577e+11 </wgt>
<wgt id='1224'> +2.8354858e+11 </wgt>
<wgt id='1225'> +2.8807011e+11 </wgt>
<wgt id='1226'> +2.9084676e+11 </wgt>
<wgt id='1227'> +2.7275221e+11 </wgt>
<wgt id='1228'> +2.8136318e+11 </wgt>
<wgt id='1229'> +3.0288244e+11 </wgt>
<wgt id='1230'> +2.9434311e+11 </wgt>
<wgt id='1231'> +2.7947002e+11 </wgt>
<wgt id='1232'> +2.8924574e+11 </wgt>
<wgt id='1233'> +2.7826106e+11 </wgt>
<wgt id='1234'> +2.7634683e+11 </wgt>
<wgt id='1235'> +3.0321495e+11 </wgt>
<wgt id='1236'> +2.7659876e+11 </wgt>
<wgt id='1237'> +2.8992807e+11 </wgt>
<wgt id='1238'> +2.8993991e+11 </wgt>
<wgt id='1239'> +2.9234763e+11 </wgt>
<wgt id='1240'> +2.8579017e+11 </wgt>
<wgt id='1241'> +2.8193849e+11 </wgt>
<wgt id='1242'> +2.8082331e+11 </wgt>
<wgt id='1243'> +2.8910414e+11 </wgt>
<wgt id='1244'> +2.8116012e+11 </wgt>
<wgt id='1245'> +2.8191548e+11 </wgt>
<wgt id='1246'> +3.0735623e+11 </wgt>
<wgt id='1247'> +2.8384758e+11 </wgt>
<wgt id='1248'> +2.7548948e+11 </wgt>
<wgt id='1249'> +2.7776256e+11 </wgt>
<wgt id='1250'> +2.9211619e+11 </wgt>
<wgt id='1251'> +2.9862536e+11 </wgt>
<wgt id='1252'> +2.8713057e+11 </wgt>
<wgt id='1253'> +2.8511763e+11 </wgt>
<wgt id='1254'> +2.8863092e+11 </wgt>
<wgt id='1255'> +2.9788470e+11 </wgt>
<wgt id='1256'> +2.9498569e+11 </wgt>
<wgt id='1257'> +2.8502532e+11 </wgt>
<wgt id='1258'> +3.0044993e+11 </wgt>
<wgt id='1259'> +2.9455361e+11 </wgt>
<wgt id='1260'> +3.2546780e+11 </wgt>
<wgt id='1261'> +3.1374840e+11 </wgt>
<wgt id='1262'> +2.8951993e+11 </wgt>
<wgt id='1263'> +2.9662531e+11 </wgt>
<wgt id='1264'> +2.9840257e+11 </wgt>
<wgt id='1265'> +2.9879106e+11 </wgt>
<wgt id='1266'> +2.9414507e+11 </wgt>
<wgt id='1267'> +3.1467192e+11 </wgt>
<wgt id='1268'> +2.9430364e+11 </wgt>
<wgt id='1269'> +2.8718232e+11 </wgt>
<wgt id='1270'> +2.9098937e+11 </wgt>
<wgt id='1271'> +2.7971766e+11 </wgt>
<wgt id='1272'> +2.9332787e+11 </wgt>
<wgt id='1273'> +2.9192656e+11 </wgt>
<wgt id='1274'> +2.8768801e+11 </wgt>
<wgt id='1275'> +2.9859664e+11 </wgt>
<wgt id='1276'> +2.9530053e+11 </wgt>
<wgt id='1277'> +2.9068155e+11 </wgt>
<wgt id='1278'> +2.8602922e+11 </wgt>
<wgt id='1279'> +2.8121737e+11 </wgt>
<wgt id='1280'> +2.9412878e+11 </wgt>
<wgt id='1281'> +2.8584324e+11 </wgt>
<wgt id='1282'> +2.9661752e+11 </wgt>
<wgt id='1283'> +2.9591861e+11 </wgt>
<wgt id='1284'> +3.1490753e+11 </wgt>
<wgt id='1285'> +3.0817382e+11 </wgt>
<wgt id='1286'> +3.2863757e+11 </wgt>
<wgt id='1287'> +3.0323390e+11 </wgt>
<wgt id='1288'> +3.2340184e+11 </wgt>
<wgt id='1289'> +3.1294446e+11 </wgt>
<wgt id='1290'> +3.1135572e+11 </wgt>
<wgt id='1291'> +2.7788235e+11 </wgt>
<wgt id='1292'> +2.9725057e+11 </wgt>
<wgt id='1293'> +3.0002338e+11 </wgt>
<wgt id='1294'> +3.1421066e+11 </wgt>
<wgt id='1295'> +2.9767248e+11 </wgt>
<wgt id='1296'> +3.1506447e+11 </wgt>
<wgt id='1297'> +2.9558052e+11 </wgt>
<wgt id='1298'> +2.8775414e+11 </wgt>
<wgt id='1299'> +2.9840922e+11 </wgt>
<wgt id='1300'> +2.8794026e+11 </wgt>
<wgt id='1301'> +2.8103523e+11 </wgt>
<wgt id='1302'> +2.7521709e+11 </wgt>
<wgt id='1303'> +2.9826818e+11 </wgt>
<wgt id='1304'> +3.0556079e+11 </wgt>
<wgt id='1305'> +2.9827994e+11 </wgt>
<wgt id='1306'> +3.0513214e+11 </wgt>
<wgt id='1307'> +3.0403991e+11 </wgt>
<wgt id='1308'> +3.2516449e+11 </wgt>
<wgt id='1309'> +2.9565798e+11 </wgt>
<wgt id='1310'> +3.0214349e+11 </wgt>
<wgt id='1311'> +3.0818812e+11 </wgt>
<wgt id='1312'> +2.9889026e+11 </wgt>
<wgt id='1313'> +2.9668930e+11 </wgt>
<wgt id='1314'> +3.0437688e+11 </wgt>
<wgt id='1315'> +2.8477764e+11 </wgt>
<wgt id='1316'> +2.9842677e+11 </wgt>
<wgt id='1317'> +3.0112453e+11 </wgt>
<wgt id='1318'> +2.8601769e+11 </wgt>
<wgt id='1319'> +3.0805387e+11 </wgt>
<wgt id='1320'> +3.0880675e+11 </wgt>
<wgt id='1321'> +2.9363513e+11 </wgt>
<wgt id='1322'> +2.9774640e+11 </wgt>
<wgt id='1323'> +2.9877142e+11 </wgt>
<wgt id='1324'> +3.0114258e+11 </wgt>
<wgt id='1325'> +3.1085189e+11 </wgt>
<wgt id='1326'> +3.0259784e+11 </wgt>
<wgt id='1327'> +2.9299837e+11 </wgt>
<wgt id='1328'> +3.0284617e+11 </wgt>
<wgt id='1329'> +2.9769264e+11 </wgt>
<wgt id='1330'> +2.9082206e+11 </wgt>
<wgt id='1331'> +3.1910038e+11 </wgt>
<wgt id='1332'> +2.8578632e+11 </wgt>
<wgt id='1333'> +3.0042774e+11 </wgt>
<wgt id='1334'> +3.1380951e+11 </wgt>
<wgt id='1335'> +2.9243351e+11 </wgt>
<wgt id='1336'> +3.0192871e+11 </wgt>
<wgt id='1337'> +3.0842550e+11 </wgt>
<wgt id='1338'> +2.8983710e+11 </wgt>
<wgt id='1339'> +3.2039444e+11 </wgt>
<wgt id='1340'> +3.0152246e+11 </wgt>
<wgt id='1341'> +3.0446887e+11 </wgt>
<wgt id='1342'> +3.1589860e+11 </wgt>
<wgt id='1343'> +3.1028497e+11 </wgt>
<wgt id='1344'> +3.0295047e+11 </wgt>
<wgt id='1345'> +2.8040754e+11 </wgt>
<wgt id='1346'> +2.9935171e+11 </wgt>
<wgt id='1347'> +2.8665350e+11 </wgt>
<wgt id='1348'> +2.8791974e+11 </wgt>
<wgt id='1349'> +2.8995376e+11 </wgt>
<wgt id='1350'> +3.0024862e+11 </wgt>
<wgt id='1351'> +2.9688658e+11 </wgt>
<wgt id='1352'> +3.0034731e+11 </wgt>
<wgt id='1353'> +2.9703543e+11 </wgt>
<wgt id='1354'> +3.0682387e+11 </wgt>
<wgt id='1355'> +2.7541207e+11 </wgt>
<wgt id='1356'> +2.7816921e+11 </wgt>
<wgt id='1357'> +2.7633358e+11 </wgt>
<wgt id='1358'> +2.7280128e+11 </wgt>
<wgt id='1359'> +2.7619853e+11 </wgt>
<wgt id='1360'> +2.6856481e+11 </wgt>
<wgt id='1361'> +2.7549015e+11 </wgt>
<wgt id='1362'> +2.7707974e+11 </wgt>
<wgt id='1363'> +2.6918644e+11 </wgt>
<wgt id='1364'> +2.8175417e+11 </wgt>
<wgt id='1365'> +2.7307894e+11 </wgt>
<wgt id='1366'> +2.7568056e+11 </wgt>
<wgt id='1367'> +2.7627873e+11 </wgt>
<wgt id='1368'> +2.7543700e+11 </wgt>
<wgt id='1369'> +2.7981215e+11 </wgt>
<wgt id='1370'> +2.7353434e+11 </wgt>
<wgt id='1371'> +2.7297258e+11 </wgt>
<wgt id='1372'> +2.7998645e+11 </wgt>
<wgt id='1373'> +2.7908076e+11 </wgt>
<wgt id='1374'> +2.6731308e+11 </wgt>
<wgt id='1375'> +2.7423347e+11 </wgt>
<wgt id='1376'> +2.7636866e+11 </wgt>
<wgt id='1377'> +2.7528683e+11 </wgt>
<wgt id='1378'> +2.7110365e+11 </wgt>
<wgt id='1379'> +2.7388029e+11 </wgt>
<wgt id='1380'> +2.7387271e+11 </wgt>
<wgt id='1381'> +2.8073955e+11 </wgt>
<wgt id='1382'> +2.7506059e+11 </wgt>
<wgt id='1383'> +2.7545411e+11 </wgt>
<wgt id='1384'> +2.7382655e+11 </wgt>
<wgt id='1385'> +2.7403690e+11 </wgt>
<wgt id='1386'> +2.7746874e+11 </wgt>
<wgt id='1387'> +2.7443993e+11 </wgt>
<wgt id='1388'> +2.7175426e+11 </wgt>
<wgt id='1389'> +2.7366961e+11 </wgt>
<wgt id='1390'> +2.7425087e+11 </wgt>
<wgt id='1391'> +2.7314949e+11 </wgt>
<wgt id='1392'> +2.7326053e+11 </wgt>
<wgt id='1393'> +2.7331775e+11 </wgt>
<wgt id='1394'> +2.7309009e+11 </wgt>
<wgt id='1395'> +2.7118219e+11 </wgt>
<wgt id='1396'> +2.7647410e+11 </wgt>
<wgt id='1397'> +2.7599795e+11 </wgt>
<wgt id='1398'> +2.7599651e+11 </wgt>
<wgt id='1399'> +2.7095559e+11 </wgt>
<wgt id='1400'> +2.7252611e+11 </wgt>
<wgt id='1401'> +2.7383952e+11 </wgt>
<wgt id='1402'> +2.7868391e+11 </wgt>
<wgt id='1403'> +2.7839551e+11 </wgt>
<wgt id='1404'> +2.7306412e+11 </wgt>
<wgt id='1405'> +2.8152405e+11 </wgt>
<wgt id='1406'> +2.7509082e+11 </wgt>
<wgt id='1407'> +2.7614167e+11 </wgt>
<wgt id='1408'> +2.7852863e+11 </wgt>
<wgt id='1409'> +2.7338466e+11 </wgt>
<wgt id='1410'> +2.7328407e+11 </wgt>
<wgt id='1411'> +2.7509239e+11 </wgt>
<wgt id='1412'> +2.7435109e+11 </wgt>
<wgt id='1413'> +2.7230772e+11 </wgt>
<wgt id='1414'> +2.7707636e+11 </wgt>
<wgt id='1415'> +2.8129863e+11 </wgt>
<wgt id='1416'> +2.7858773e+11 </wgt>
<wgt id='1417'> +2.6859249e+11 </wgt>
<wgt id='1418'> +2.7714013e+11 </wgt>
<wgt id='1419'> +2.7892388e+11 </wgt>
<wgt id='1420'> +2.7467087e+11 </wgt>
<wgt id='1421'> +2.8146506e+11 </wgt>
<wgt id='1422'> +2.6778489e+11 </wgt>
<wgt id='1423'> +2.8066975e+11 </wgt>
<wgt id='1424'> +2.7640942e+11 </wgt>
<wgt id='1425'> +2.7559633e+11 </wgt>
<wgt id='1426'> +2.7903638e+11 </wgt>
<wgt id='1427'> +2.7538870e+11 </wgt>
<wgt id='1428'> +2.7528256e+11 </wgt>
<wgt id='1429'> +2.7110345e+11 </wgt>
<wgt id='1430'> +2.7063401e+11 </wgt>
<wgt id='1431'> +2.7075378e+11 </wgt>
<wgt id='1432'> +2.7744103e+11 </wgt>
<wgt id='1433'> +2.7615314e+11 </wgt>
<wgt id='1434'> +2.8204332e+11 </wgt>
<wgt id='1435'> +2.7456267e+11 </wgt>
<wgt id='1436'> +2.7961395e+11 </wgt>
<wgt id='1437'> +2.7821738e+11 </wgt>
<wgt id='1438'> +2.7339276e+11 </wgt>
<wgt id='1439'> +2.7600603e+11 </wgt>
<wgt id='1440'> +2.8008701e+11 </wgt>
<wgt id='1441'> +2.7542823e+11 </wgt>
<wgt id='1442'> +2.8317090e+11 </wgt>
<wgt id='1443'> +2.7360706e+11 </wgt>
<wgt id='1444'> +2.7358270e+11 </wgt>
<wgt id='1445'> +2.7846018e+11 </wgt>
<wgt id='1446'> +2.7751300e+11 </wgt>
<wgt id='1447'> +2.7135055e+11 </wgt>
<wgt id='1448'> +2.7776539e+11 </wgt>
<wgt id='1449'> +2.7668312e+11 </wgt>
<wgt id='1450'> +2.7347095e+11 </wgt>
<wgt id='1451'> +2.7663741e+11 </wgt>
<wgt id='1452'> +2.7865694e+11 </wgt>
<wgt id='1453'> +2.8063076e+11 </wgt>
<wgt id='1454'> +2.6883462e+11 </wgt>
<wgt id='1455'> +2.7466641e+11 </wgt>
<wgt id='1456'> +2.7465633e+11 </wgt>
<wgt id='1457'> +2.7418355e+11 </wgt>
<wgt id='1458'> +2.7720241e+11 </wgt>
<wgt id='1459'> +3.0509266e+11 </wgt>
<wgt id='1460'> +3.0041867e+11 </wgt>
<wgt id='1461'> +3.4719464e+11 </wgt>
<wgt id='1462'> +2.9973388e+11 </wgt>
<wgt id='1463'> +2.9998481e+11 </wgt>
<wgt id='1464'> +2.9941208e+11 </wgt>
<wgt id='1465'> +2.9979514e+11 </wgt>
<wgt id='1466'> +2.9967792e+11 </wgt>
<wgt id='1467'> +2.9989853e+11 </wgt>
<wgt id='1468'> +2.9946376e+11 </wgt>
<wgt id='1469'> +2.9928261e+11 </wgt>
<wgt id='1470'> +3.0010041e+11 </wgt>
<wgt id='1471'> +3.0021363e+11 </wgt>
<wgt id='1472'> +2.9923976e+11 </wgt>
<wgt id='1473'> +3.0088323e+11 </wgt>
<wgt id='1474'> +2.9862994e+11 </wgt>
<wgt id='1475'> +3.0083140e+11 </wgt>
<wgt id='1476'> +2.9895575e+11 </wgt>
<wgt id='1477'> +2.9915929e+11 </wgt>
<wgt id='1478'> +3.0107607e+11 </wgt>
<wgt id='1479'> +2.9915044e+11 </wgt>
<wgt id='1480'> +3.0014102e+11 </wgt>
<wgt id='1481'> +2.9931537e+11 </wgt>
<wgt id='1482'> +3.0029818e+11 </wgt>
<wgt id='1483'> +2.9983281e+11 </wgt>
<wgt id='1484'> +2.9959332e+11 </wgt>
<wgt id='1485'> +2.9993444e+11 </wgt>
<wgt id='1486'> +2.9925089e+11 </wgt>
<wgt id='1487'> +2.9998112e+11 </wgt>
<wgt id='1488'> +2.9942274e+11 </wgt>
<wgt id='1489'> +2.9938313e+11 </wgt>
<wgt id='1490'> +3.0068471e+11 </wgt>
<wgt id='1491'> +3.0465352e+11 </wgt>
<wgt id='1492'> +2.9698777e+11 </wgt>
<wgt id='1493'> +2.9624015e+11 </wgt>
<wgt id='1494'> +3.1068276e+11 </wgt>
<wgt id='1495'> +2.9910512e+11 </wgt>
<wgt id='1496'> +3.0040824e+11 </wgt>
<wgt id='1497'> +2.9993279e+11 </wgt>
<wgt id='1498'> +2.9946203e+11 </wgt>
<wgt id='1499'> +3.0159638e+11 </wgt>
<wgt id='1500'> +2.9871489e+11 </wgt>
<wgt id='1501'> +3.0020160e+11 </wgt>
<wgt id='1502'> +2.9849417e+11 </wgt>
<wgt id='1503'> +2.9662669e+11 </wgt>
<wgt id='1504'> +3.0302423e+11 </wgt>
<wgt id='1505'> +3.0077166e+11 </wgt>
<wgt id='1506'> +2.9873818e+11 </wgt>
<wgt id='1507'> +3.0097897e+11 </wgt>
<wgt id='1508'> +2.9913330e+11 </wgt>
<wgt id='1509'> +3.0030148e+11 </wgt>
<wgt id='1510'> +2.9729830e+11 </wgt>
<wgt id='1511'> +3.0083704e+11 </wgt>
<wgt id='1512'> +2.9942470e+11 </wgt>
<wgt id='1513'> +2.9965617e+11 </wgt>
<wgt id='1514'> +2.9980293e+11 </wgt>
<wgt id='1515'> +3.0210409e+11 </wgt>
<wgt id='1516'> +3.0021904e+11 </wgt>
<wgt id='1517'> +2.9936571e+11 </wgt>
<wgt id='1518'> +3.0002899e+11 </wgt>
<wgt id='1519'> +2.9811910e+11 </wgt>
<wgt id='1520'> +3.0088339e+11 </wgt>
<wgt id='1521'> +2.9898238e+11 </wgt>
<wgt id='1522'> +3.0018647e+11 </wgt>
<wgt id='1523'> +3.0110834e+11 </wgt>
<wgt id='1524'> +3.0107738e+11 </wgt>
<wgt id='1525'> +3.0098996e+11 </wgt>
<wgt id='1526'> +3.0049024e+11 </wgt>
<wgt id='1527'> +2.9973388e+11 </wgt>
<wgt id='1528'> +2.9958306e+11 </wgt>
<wgt id='1529'> +2.9935047e+11 </wgt>
<wgt id='1530'> +2.9557974e+11 </wgt>
<wgt id='1531'> +2.9658865e+11 </wgt>
<wgt id='1532'> +2.9419916e+11 </wgt>
<wgt id='1533'> +2.9221919e+11 </wgt>
<wgt id='1534'> +2.9497609e+11 </wgt>
<wgt id='1535'> +2.9906097e+11 </wgt>
<wgt id='1536'> +2.9349195e+11 </wgt>
<wgt id='1537'> +2.9647643e+11 </wgt>
<wgt id='1538'> +2.9342422e+11 </wgt>
<wgt id='1539'> +3.0284288e+11 </wgt>
<wgt id='1540'> +2.9570628e+11 </wgt>
<wgt id='1541'> +2.9665852e+11 </wgt>
<wgt id='1542'> +2.9648632e+11 </wgt>
<wgt id='1543'> +2.9760577e+11 </wgt>
<wgt id='1544'> +2.9468849e+11 </wgt>
<wgt id='1545'> +2.9463502e+11 </wgt>
<wgt id='1546'> +2.9269521e+11 </wgt>
<wgt id='1547'> +2.9887930e+11 </wgt>
<wgt id='1548'> +2.9457161e+11 </wgt>
<wgt id='1549'> +2.9326276e+11 </wgt>
<wgt id='1550'> +2.9716844e+11 </wgt>
<wgt id='1551'> +2.9723895e+11 </wgt>
<wgt id='1552'> +2.9589441e+11 </wgt>
<wgt id='1553'> +2.9836002e+11 </wgt>
<wgt id='1554'> +2.9642687e+11 </wgt>
<wgt id='1555'> +2.9718345e+11 </wgt>
<wgt id='1556'> +2.9894498e+11 </wgt>
<wgt id='1557'> +2.9591623e+11 </wgt>
<wgt id='1558'> +2.9655861e+11 </wgt>
<wgt id='1559'> +2.9457948e+11 </wgt>
<wgt id='1560'> +2.9537794e+11 </wgt>
<wgt id='1561'> +2.9260604e+11 </wgt>
<wgt id='1562'> +2.9514427e+11 </wgt>
<wgt id='1563'> +2.9650351e+11 </wgt>
<wgt id='1564'> +2.9621110e+11 </wgt>
<wgt id='1565'> +2.9878891e+11 </wgt>
<wgt id='1566'> +2.9690217e+11 </wgt>
<wgt id='1567'> +3.0016075e+11 </wgt>
<wgt id='1568'> +2.9653388e+11 </wgt>
<wgt id='1569'> +2.9622697e+11 </wgt>
<wgt id='1570'> +2.9795421e+11 </wgt>
<wgt id='1571'> +2.9638644e+11 </wgt>
<wgt id='1572'> +2.9826840e+11 </wgt>
<wgt id='1573'> +2.9934392e+11 </wgt>
<wgt id='1574'> +2.6348539e+11 </wgt>
<wgt id='1575'> +2.6355728e+11 </wgt>
<wgt id='1576'> +2.6341783e+11 </wgt>
<wgt id='1577'> +2.6350358e+11 </wgt>
<wgt id='1578'> +2.6409259e+11 </wgt>
<wgt id='1579'> +2.6435254e+11 </wgt>
<wgt id='1580'> +2.6412458e+11 </wgt>
<wgt id='1581'> +2.6285700e+11 </wgt>
<wgt id='1582'> +2.6254925e+11 </wgt>
<wgt id='1583'> +2.6305066e+11 </wgt>
<wgt id='1584'> +2.6406117e+11 </wgt>
<wgt id='1585'> +2.6367242e+11 </wgt>
<wgt id='1586'> +2.6245863e+11 </wgt>
<wgt id='1587'> +2.6271593e+11 </wgt>
<wgt id='1588'> +2.6221227e+11 </wgt>
<wgt id='1589'> +2.6323819e+11 </wgt>
<wgt id='1590'> +2.6329605e+11 </wgt>
<wgt id='1591'> +2.6355257e+11 </wgt>
<wgt id='1592'> +2.6245432e+11 </wgt>
<wgt id='1593'> +2.6262659e+11 </wgt>
<wgt id='1594'> +2.6429175e+11 </wgt>
<wgt id='1595'> +2.6126617e+11 </wgt>
<wgt id='1596'> +2.6704283e+11 </wgt>
<wgt id='1597'> +2.6521212e+11 </wgt>
<wgt id='1598'> +2.6544151e+11 </wgt>
<wgt id='1599'> +2.6075575e+11 </wgt>
<wgt id='1600'> +2.6789037e+11 </wgt>
<wgt id='1601'> +2.6562644e+11 </wgt>
<wgt id='1602'> +2.6354267e+11 </wgt>
<wgt id='1603'> +2.7377651e+11 </wgt>
<wgt id='1604'> +2.6356946e+11 </wgt>
</rwgt>
</event>
<event>
 9      1 +2.8343000e+11 1.39999900e+03 7.81738600e-03 7.88881200e-02
       21 -1    0    0  504  503 +0.0000000000e+00 +0.0000000000e+00 +2.9121553113e+02 2.9121553113e+02 0.0000000000e+00 0.0000e+00 1.0000e+00
       21 -1    0    0  503  504 -0.0000000000e+00 -0.0000000000e+00 -1.6826011190e+03 1.6826011190e+03 0.0000000000e+00 0.0000e+00 1.0000e+00
       45  2    1    2    0    0 +0.0000000000e+00 -1.1368683772e-13 -1.3913855879e+03 1.9738166502e+03 1.3999993979e+03 0.0000e+00 0.0000e+00
       25  2    3    3    0    0 -1.4918224102e+02 +6.7127791251e+02 -8.0076075441e+02 1.0628790660e+03 1.2499898502e+02 0.0000e+00 0.0000e+00
       35  2    3    3    0    0 +1.4918224102e+02 -6.7127791251e+02 -5.9062483350e+02 9.1093758417e+02 9.0001174653e+01 0.0000e+00 0.0000e+00
        5  1    5    5  501    0 +5.2723612917e+01 -1.1098671543e+02 -7.9469590240e+01 1.4639331928e+02 4.2140000000e+00 0.0000e+00 -1.0000e+00
       -5  1    5    5    0  501 +9.6458628105e+01 -5.6029119708e+02 -5.1115524326e+02 7.6454426489e+02 4.2140000000e+00 0.0000e+00 -1.0000e+00
        5  1    4    4  502    0 -1.2615358164e+02 +5.2380240372e+02 -6.9733597689e+02 8.8123714558e+02 4.2140000000e+00 0.0000e+00 1.0000e+00
       -5  1    4    4    0  502 -2.3028659384e+01 +1.4747550880e+02 -1.0342477752e+02 1.8164192041e+02 4.2140000000e+00 0.0000e+00 1.0000e+00
<mgrwt>
<rscale>  0 0.13999994E+04</rscale>
<asrwt>0</asrwt>
<pdfrwt beam="1">  1       21 0.44802389E-01 0.13999994E+04</pdfrwt>
<pdfrwt beam="2">  1       21 0.25886171E+00 0.13999994E+04</pdfrwt>
<totfact> 0.17248041E+02</totfact>
</mgrwt>
<rwgt>
<wgt id='1001'> +2.8343000e+11 </wgt>
<wgt id='1002'> +2.8413917e+11 </wgt>
<wgt id='1003'> +2.8413715e+11 </wgt>
<wgt id='1004'> +3.2103828e+11 </wgt>
<wgt id='1005'> +2.8343000e+11 </wgt>
<wgt id='1006'> +2.8343000e+11 </wgt>
<wgt id='1007'> +2.8413917e+11 </wgt>
<wgt id='1008'> +2.8413715e+11 </wgt>
<wgt id='1009'> +3.2103828e+11 </wgt>
<wgt id='1010'> +2.8343000e+11 </wgt>
<wgt id='1011'> +2.8343000e+11 </wgt>
<wgt id='1012'> +2.8413917e+11 </wgt>
<wgt id='1013'> +2.8413715e+11 </wgt>
<wgt id='1014'> +3.2103828e+11 </wgt>
<wgt id='1015'> +2.8343000e+11 </wgt>
<wgt id='1016'> +2.5279148e+11 </wgt>
<wgt id='1017'> +2.5338777e+11 </wgt>
<wgt id='1018'> +2.5338606e+11 </wgt>
<wgt id='1019'> +2.8413715e+11 </wgt>
<wgt id='1020'> +2.5279148e+11 </wgt>
<wgt id='1021'> +2.5279148e+11 </wgt>
<wgt id='1022'> +2.5338777e+11 </wgt>
<wgt id='1023'> +2.5338606e+11 </wgt>
<wgt id='1024'> +2.8413715e+11 </wgt>
<wgt id='1025'> +2.5279148e+11 </wgt>
<wgt id='1026'> +2.5279148e+11 </wgt>
<wgt id='1027'> +2.5338777e+11 </wgt>
<wgt id='1028'> +2.5338606e+11 </wgt>
<wgt id='1029'> +2.8413715e+11 </wgt>
<wgt id='1030'> +2.5279148e+11 </wgt>
<wgt id='1031'> +3.2018452e+11 </wgt>
<wgt id='1032'> +3.2104073e+11 </wgt>
<wgt id='1033'> +3.2103828e+11 </wgt>
<wgt id='1034'> +3.6573035e+11 </wgt>
<wgt id='1035'> +3.2018452e+11 </wgt>
<wgt id='1036'> +3.2018452e+11 </wgt>
<wgt id='1037'> +3.2104073e+11 </wgt>
<wgt id='1038'> +3.2103828e+11 </wgt>
<wgt id='1039'> +3.6573035e+11 </wgt>
<wgt id='1040'> +3.2018452e+11 </wgt>
<wgt id='1041'> +3.2018452e+11 </wgt>
<wgt id='1042'> +3.2104073e+11 </wgt>
<wgt id='1043'> +3.2103828e+11 </wgt>
<wgt id='1044'> +3.6573035e+11 </wgt>
<wgt id='1045'> +3.2018452e+11 </wgt>
<wgt id='1046'> +2.8343000e+11 </wgt>
<wgt id='1047'> +2.8343000e+11 </wgt>
<wgt id='1048'> +2.8343000e+11 </wgt>
<wgt id='1049'> +2.8314367e+11 </wgt>
<wgt id='1050'> +2.8295554e+11 </wgt>
<wgt id='1051'> +2.8359601e+11 </wgt>
<wgt id='1052'> +2.8378847e+11 </wgt>
<wgt id='1053'> +2.8148924e+11 </wgt>
<wgt id='1054'> +2.8443635e+11 </wgt>
<wgt id='1055'> +2.8196521e+11 </wgt>
<wgt id='1056'> +2.8159905e+11 </wgt>
<wgt id='1057'> +2.8216506e+11 </wgt>
<wgt id='1058'> +2.8258489e+11 </wgt>
<wgt id='1059'> +2.8587060e+11 </wgt>
<wgt id='1060'> +2.8341465e+11 </wgt>
<wgt id='1061'> +2.8429279e+11 </wgt>
<wgt id='1062'> +2.8442878e+11 </wgt>
<wgt id='1063'> +2.8472725e+11 </wgt>
<wgt id='1064'> +2.8443976e+11 </wgt>
<wgt id='1065'> +2.8528876e+11 </wgt>
<wgt id='1066'> +2.8208130e+11 </wgt>
<wgt id='1067'> +2.8223402e+11 </wgt>
<wgt id='1068'> +2.8416924e+11 </wgt>
<wgt id='1069'> +2.8241609e+11 </wgt>
<wgt id='1070'> +2.8388160e+11 </wgt>
<wgt id='1071'> +2.8344640e+11 </wgt>
<wgt id='1072'> +2.8390737e+11 </wgt>
<wgt id='1073'> +2.8203713e+11 </wgt>
<wgt id='1074'> +2.8234630e+11 </wgt>
<wgt id='1075'> +2.8243835e+11 </wgt>
<wgt id='1076'> +2.8277232e+11 </wgt>
<wgt id='1077'> +2.8161415e+11 </wgt>
<wgt id='1078'> +2.8319574e+11 </wgt>
<wgt id='1079'> +2.8251091e+11 </wgt>
<wgt id='1080'> +2.8253731e+11 </wgt>
<wgt id='1081'> +2.8317149e+11 </wgt>
<wgt id='1082'> +2.8327811e+11 </wgt>
<wgt id='1083'> +2.8430225e+11 </wgt>
<wgt id='1084'> +2.8395130e+11 </wgt>
<wgt id='1085'> +2.8219300e+11 </wgt>
<wgt id='1086'> +2.8465814e+11 </wgt>
<wgt id='1087'> +2.8375904e+11 </wgt>
<wgt id='1088'> +2.8255058e+11 </wgt>
<wgt id='1089'> +2.8259377e+11 </wgt>
<wgt id='1090'> +2.8431631e+11 </wgt>
<wgt id='1091'> +2.8374681e+11 </wgt>
<wgt id='1092'> +2.8362012e+11 </wgt>
<wgt id='1093'> +2.8335244e+11 </wgt>
<wgt id='1094'> +2.8184460e+11 </wgt>
<wgt id='1095'> +2.8387372e+11 </wgt>
<wgt id='1096'> +2.8345035e+11 </wgt>
<wgt id='1097'> +2.8264889e+11 </wgt>
<wgt id='1098'> +2.8307526e+11 </wgt>
<wgt id='1099'> +2.8332389e+11 </wgt>
<wgt id='1100'> +2.8391717e+11 </wgt>
<wgt id='1101'> +2.8337006e+11 </wgt>
<wgt id='1102'> +2.8323973e+11 </wgt>
<wgt id='1103'> +2.8220481e+11 </wgt>
<wgt id='1104'> +2.8360349e+11 </wgt>
<wgt id='1105'> +2.8356714e+11 </wgt>
<wgt id='1106'> +2.8392231e+11 </wgt>
<wgt id='1107'> +2.8386735e+11 </wgt>
<wgt id='1108'> +2.8314268e+11 </wgt>
<wgt id='1109'> +2.8343312e+11 </wgt>
<wgt id='1110'> +2.8358267e+11 </wgt>
<wgt id='1111'> +2.8404424e+11 </wgt>
<wgt id='1112'> +2.8319175e+11 </wgt>
<wgt id='1113'> +2.8380367e+11 </wgt>
<wgt id='1114'> +2.8312174e+11 </wgt>
<wgt id='1115'> +2.8264739e+11 </wgt>
<wgt id='1116'> +2.8442877e+11 </wgt>
<wgt id='1117'> +2.8328939e+11 </wgt>
<wgt id='1118'> +2.8397295e+11 </wgt>
<wgt id='1119'> +2.8278663e+11 </wgt>
<wgt id='1120'> +2.8273520e+11 </wgt>
<wgt id='1121'> +2.8345054e+11 </wgt>
<wgt id='1122'> +2.8282820e+11 </wgt>
<wgt id='1123'> +2.8337724e+11 </wgt>
<wgt id='1124'> +2.8362259e+11 </wgt>
<wgt id='1125'> +2.8363450e+11 </wgt>
<wgt id='1126'> +2.8357343e+11 </wgt>
<wgt id='1127'> +2.8334738e+11 </wgt>
<wgt id='1128'> +2.8330394e+11 </wgt>
<wgt id='1129'> +2.8312936e+11 </wgt>
<wgt id='1130'> +2.8345497e+11 </wgt>
<wgt id='1131'> +2.8421053e+11 </wgt>
<wgt id='1132'> +2.8324538e+11 </wgt>
<wgt id='1133'> +2.8365090e+11 </wgt>
<wgt id='1134'> +2.8334090e+11 </wgt>
<wgt id='1135'> +2.8348865e+11 </wgt>
<wgt id='1136'> +2.8321294e+11 </wgt>
<wgt id='1137'> +2.8310012e+11 </wgt>
<wgt id='1138'> +2.8360968e+11 </wgt>
<wgt id='1139'> +2.8366490e+11 </wgt>
<wgt id='1140'> +2.8377079e+11 </wgt>
<wgt id='1141'> +2.8304915e+11 </wgt>
<wgt id='1142'> +2.8347304e+11 </wgt>
<wgt id='1143'> +2.8370517e+11 </wgt>
<wgt id='1144'> +2.8333162e+11 </wgt>
<wgt id='1145'> +2.8364639e+11 </wgt>
<wgt id='1146'> +2.8358544e+11 </wgt>
<wgt id='1147'> +2.8351560e+11 </wgt>
<wgt id='1148'> +2.8343000e+11 </wgt>
<wgt id='1149'> +2.8343000e+11 </wgt>
<wgt id='1150'> +2.8926795e+11 </wgt>
<wgt id='1151'> +2.7724234e+11 </wgt>
<wgt id='1152'> +2.7379471e+11 </wgt>
<wgt id='1153'> +2.8548840e+11 </wgt>
<wgt id='1154'> +2.7512930e+11 </wgt>
<wgt id='1155'> +2.9989891e+11 </wgt>
<wgt id='1156'> +2.8460880e+11 </wgt>
<wgt id='1157'> +2.7960257e+11 </wgt>
<wgt id='1158'> +2.7797648e+11 </wgt>
<wgt id='1159'> +2.8932435e+11 </wgt>
<wgt id='1160'> +2.7986091e+11 </wgt>
<wgt id='1161'> +2.9813857e+11 </wgt>
<wgt id='1162'> +2.8615301e+11 </wgt>
<wgt id='1163'> +2.8830500e+11 </wgt>
<wgt id='1164'> +2.7293357e+11 </wgt>
<wgt id='1165'> +2.7343746e+11 </wgt>
<wgt id='1166'> +2.8370200e+11 </wgt>
<wgt id='1167'> +2.7986020e+11 </wgt>
<wgt id='1168'> +2.7071420e+11 </wgt>
<wgt id='1169'> +2.7540703e+11 </wgt>
<wgt id='1170'> +2.8409853e+11 </wgt>
<wgt id='1171'> +2.7433128e+11 </wgt>
<wgt id='1172'> +2.7024149e+11 </wgt>
<wgt id='1173'> +2.8835189e+11 </wgt>
<wgt id='1174'> +2.7889836e+11 </wgt>
<wgt id='1175'> +2.7834267e+11 </wgt>
<wgt id='1176'> +2.8902613e+11 </wgt>
<wgt id='1177'> +2.8426905e+11 </wgt>
<wgt id='1178'> +2.8633765e+11 </wgt>
<wgt id='1179'> +2.9332775e+11 </wgt>
<wgt id='1180'> +2.7914892e+11 </wgt>
<wgt id='1181'> +2.8915845e+11 </wgt>
<wgt id='1182'> +2.8369360e+11 </wgt>
<wgt id='1183'> +2.9038601e+11 </wgt>
<wgt id='1184'> +2.6379022e+11 </wgt>
<wgt id='1185'> +2.9178542e+11 </wgt>
<wgt id='1186'> +2.7826071e+11 </wgt>
<wgt id='1187'> +2.9038785e+11 </wgt>
<wgt id='1188'> +2.9514727e+11 </wgt>
<wgt id='1189'> +2.8575251e+11 </wgt>
<wgt id='1190'> +2.8133677e+11 </wgt>
<wgt id='1191'> +2.9535749e+11 </wgt>
<wgt id='1192'> +2.8714374e+11 </wgt>
<wgt id='1193'> +2.8739071e+11 </wgt>
<wgt id='1194'> +2.7465425e+11 </wgt>
<wgt id='1195'> +2.9174475e+11 </wgt>
<wgt id='1196'> +2.8721783e+11 </wgt>
<wgt id='1197'> +2.9085973e+11 </wgt>
<wgt id='1198'> +2.8376788e+11 </wgt>
<wgt id='1199'> +2.8329707e+11 </wgt>
<wgt id='1200'> +2.9306041e+11 </wgt>
<wgt id='1201'> +2.8685573e+11 </wgt>
<wgt id='1202'> +2.8181990e+11 </wgt>
<wgt id='1203'> +2.8869781e+11 </wgt>
<wgt id='1204'> +2.7715864e+11 </wgt>
<wgt id='1205'> +2.8955419e+11 </wgt>
<wgt id='1206'> +2.8026794e+11 </wgt>
<wgt id='1207'> +2.9450100e+11 </wgt>
<wgt id='1208'> +2.7507643e+11 </wgt>
<wgt id='1209'> +2.8489692e+11 </wgt>
<wgt id='1210'> +2.8497228e+11 </wgt>
<wgt id='1211'> +2.7968535e+11 </wgt>
<wgt id='1212'> +2.7966069e+11 </wgt>
<wgt id='1213'> +2.8229382e+11 </wgt>
<wgt id='1214'> +2.8040186e+11 </wgt>
<wgt id='1215'> +2.8043782e+11 </wgt>
<wgt id='1216'> +2.7068851e+11 </wgt>
<wgt id='1217'> +2.8533515e+11 </wgt>
<wgt id='1218'> +2.8308638e+11 </wgt>
<wgt id='1219'> +2.9066002e+11 </wgt>
<wgt id='1220'> +2.8037227e+11 </wgt>
<wgt id='1221'> +2.7369648e+11 </wgt>
<wgt id='1222'> +2.7947033e+11 </wgt>
<wgt id='1223'> +2.7494096e+11 </wgt>
<wgt id='1224'> +2.8147346e+11 </wgt>
<wgt id='1225'> +2.7692418e+11 </wgt>
<wgt id='1226'> +2.8470623e+11 </wgt>
<wgt id='1227'> +2.7633439e+11 </wgt>
<wgt id='1228'> +2.7966331e+11 </wgt>
<wgt id='1229'> +2.9751338e+11 </wgt>
<wgt id='1230'> +2.8619177e+11 </wgt>
<wgt id='1231'> +2.7343746e+11 </wgt>
<wgt id='1232'> +2.9049981e+11 </wgt>
<wgt id='1233'> +2.7858553e+11 </wgt>
<wgt id='1234'> +2.7853499e+11 </wgt>
<wgt id='1235'> +3.0410983e+11 </wgt>
<wgt id='1236'> +2.8398402e+11 </wgt>
<wgt id='1237'> +2.9419526e+11 </wgt>
<wgt id='1238'> +2.8742745e+11 </wgt>
<wgt id='1239'> +2.9017887e+11 </wgt>
<wgt id='1240'> +2.7474010e+11 </wgt>
<wgt id='1241'> +2.9093846e+11 </wgt>
<wgt id='1242'> +2.8273297e+11 </wgt>
<wgt id='1243'> +2.8073594e+11 </wgt>
<wgt id='1244'> +2.9242664e+11 </wgt>
<wgt id='1245'> +2.6794372e+11 </wgt>
<wgt id='1246'> +3.0317041e+11 </wgt>
<wgt id='1247'> +2.8121899e+11 </wgt>
<wgt id='1248'> +2.7511019e+11 </wgt>
<wgt id='1249'> +2.7572196e+11 </wgt>
<wgt id='1250'> +2.9689192e+11 </wgt>
<wgt id='1251'> +3.0837525e+11 </wgt>
<wgt id='1252'> +2.8911829e+11 </wgt>
<wgt id='1253'> +3.0704118e+11 </wgt>
<wgt id='1254'> +2.9320159e+11 </wgt>
<wgt id='1255'> +3.1418966e+11 </wgt>
<wgt id='1256'> +3.1032120e+11 </wgt>
<wgt id='1257'> +2.9999304e+11 </wgt>
<wgt id='1258'> +2.9279098e+11 </wgt>
<wgt id='1259'> +3.2144885e+11 </wgt>
<wgt id='1260'> +3.4130845e+11 </wgt>
<wgt id='1261'> +3.2560649e+11 </wgt>
<wgt id='1262'> +3.0227327e+11 </wgt>
<wgt id='1263'> +3.0687592e+11 </wgt>
<wgt id='1264'> +3.0553349e+11 </wgt>
<wgt id='1265'> +2.8867073e+11 </wgt>
<wgt id='1266'> +3.0867901e+11 </wgt>
<wgt id='1267'> +3.8182171e+11 </wgt>
<wgt id='1268'> +2.8689828e+11 </wgt>
<wgt id='1269'> +2.8564293e+11 </wgt>
<wgt id='1270'> +3.1985090e+11 </wgt>
<wgt id='1271'> +2.5714491e+11 </wgt>
<wgt id='1272'> +3.0014516e+11 </wgt>
<wgt id='1273'> +2.9367761e+11 </wgt>
<wgt id='1274'> +2.9182529e+11 </wgt>
<wgt id='1275'> +2.9057446e+11 </wgt>
<wgt id='1276'> +3.1544352e+11 </wgt>
<wgt id='1277'> +3.1339104e+11 </wgt>
<wgt id='1278'> +3.0890738e+11 </wgt>
<wgt id='1279'> +2.7818724e+11 </wgt>
<wgt id='1280'> +2.9380313e+11 </wgt>
<wgt id='1281'> +2.8669459e+11 </wgt>
<wgt id='1282'> +2.9380663e+11 </wgt>
<wgt id='1283'> +3.2813262e+11 </wgt>
<wgt id='1284'> +3.0108320e+11 </wgt>
<wgt id='1285'> +3.0542463e+11 </wgt>
<wgt id='1286'> +3.4534934e+11 </wgt>
<wgt id='1287'> +3.4009449e+11 </wgt>
<wgt id='1288'> +3.6336269e+11 </wgt>
<wgt id='1289'> +3.2671865e+11 </wgt>
<wgt id='1290'> +3.1700694e+11 </wgt>
<wgt id='1291'> +2.8239702e+11 </wgt>
<wgt id='1292'> +3.1163675e+11 </wgt>
<wgt id='1293'> +3.0615842e+11 </wgt>
<wgt id='1294'> +3.4801613e+11 </wgt>
<wgt id='1295'> +3.1745808e+11 </wgt>
<wgt id='1296'> +3.5501560e+11 </wgt>
<wgt id='1297'> +2.8430315e+11 </wgt>
<wgt id='1298'> +2.9421325e+11 </wgt>
<wgt id='1299'> +3.1029370e+11 </wgt>
<wgt id='1300'> +2.6626743e+11 </wgt>
<wgt id='1301'> +2.7986067e+11 </wgt>
<wgt id='1302'> +2.7851303e+11 </wgt>
<wgt id='1303'> +3.1300942e+11 </wgt>
<wgt id='1304'> +3.5129355e+11 </wgt>
<wgt id='1305'> +2.9741072e+11 </wgt>
<wgt id='1306'> +3.0788495e+11 </wgt>
<wgt id='1307'> +2.7453590e+11 </wgt>
<wgt id='1308'> +3.4052138e+11 </wgt>
<wgt id='1309'> +3.1099131e+11 </wgt>
<wgt id='1310'> +3.0847085e+11 </wgt>
<wgt id='1311'> +2.9087645e+11 </wgt>
<wgt id='1312'> +3.4166836e+11 </wgt>
<wgt id='1313'> +3.1740843e+11 </wgt>
<wgt id='1314'> +2.8216223e+11 </wgt>
<wgt id='1315'> +2.8750315e+11 </wgt>
<wgt id='1316'> +3.0143618e+11 </wgt>
<wgt id='1317'> +3.3651670e+11 </wgt>
<wgt id='1318'> +2.9259538e+11 </wgt>
<wgt id='1319'> +3.0454418e+11 </wgt>
<wgt id='1320'> +3.2756666e+11 </wgt>
<wgt id='1321'> +3.1513269e+11 </wgt>
<wgt id='1322'> +3.2928412e+11 </wgt>
<wgt id='1323'> +2.7516337e+11 </wgt>
<wgt id='1324'> +3.2281604e+11 </wgt>
<wgt id='1325'> +3.1828360e+11 </wgt>
<wgt id='1326'> +3.1708770e+11 </wgt>
<wgt id='1327'> +3.3058362e+11 </wgt>
<wgt id='1328'> +3.1039989e+11 </wgt>
<wgt id='1329'> +2.9592821e+11 </wgt>
<wgt id='1330'> +2.7929969e+11 </wgt>
<wgt id='1331'> +3.3049044e+11 </wgt>
<wgt id='1332'> +3.1423576e+11 </wgt>
<wgt id='1333'> +3.0447409e+11 </wgt>
<wgt id='1334'> +3.3386057e+11 </wgt>
<wgt id='1335'> +2.8518371e+11 </wgt>
<wgt id='1336'> +3.3870309e+11 </wgt>
<wgt id='1337'> +3.1319937e+11 </wgt>
<wgt id='1338'> +2.8364392e+11 </wgt>
<wgt id='1339'> +3.0503127e+11 </wgt>
<wgt id='1340'> +3.3182000e+11 </wgt>
<wgt id='1341'> +3.6102964e+11 </wgt>
<wgt id='1342'> +2.9007876e+11 </wgt>
<wgt id='1343'> +3.1170757e+11 </wgt>
<wgt id='1344'> +3.3132435e+11 </wgt>
<wgt id='1345'> +2.4224237e+11 </wgt>
<wgt id='1346'> +3.0902218e+11 </wgt>
<wgt id='1347'> +3.0408592e+11 </wgt>
<wgt id='1348'> +2.9185582e+11 </wgt>
<wgt id='1349'> +2.9351525e+11 </wgt>
<wgt id='1350'> +3.3267028e+11 </wgt>
<wgt id='1351'> +2.8808832e+11 </wgt>
<wgt id='1352'> +3.1039455e+11 </wgt>
<wgt id='1353'> +3.1015035e+11 </wgt>
<wgt id='1354'> +3.1751639e+11 </wgt>
<wgt id='1355'> +2.8436309e+11 </wgt>
<wgt id='1356'> +2.8679548e+11 </wgt>
<wgt id='1357'> +2.8673362e+11 </wgt>
<wgt id='1358'> +2.8269922e+11 </wgt>
<wgt id='1359'> +2.8177253e+11 </wgt>
<wgt id='1360'> +2.7955597e+11 </wgt>
<wgt id='1361'> +2.8257380e+11 </wgt>
<wgt id='1362'> +2.9396355e+11 </wgt>
<wgt id='1363'> +2.8469616e+11 </wgt>
<wgt id='1364'> +2.9565553e+11 </wgt>
<wgt id='1365'> +2.8198435e+11 </wgt>
<wgt id='1366'> +2.8125714e+11 </wgt>
<wgt id='1367'> +2.8015406e+11 </wgt>
<wgt id='1368'> +2.8745759e+11 </wgt>
<wgt id='1369'> +2.8784130e+11 </wgt>
<wgt id='1370'> +2.7649205e+11 </wgt>
<wgt id='1371'> +2.8156207e+11 </wgt>
<wgt id='1372'> +2.8015187e+11 </wgt>
<wgt id='1373'> +2.9024035e+11 </wgt>
<wgt id='1374'> +2.8184230e+11 </wgt>
<wgt id='1375'> +2.8672490e+11 </wgt>
<wgt id='1376'> +2.8431447e+11 </wgt>
<wgt id='1377'> +2.8340556e+11 </wgt>
<wgt id='1378'> +2.8911055e+11 </wgt>
<wgt id='1379'> +2.8190456e+11 </wgt>
<wgt id='1380'> +2.8180867e+11 </wgt>
<wgt id='1381'> +2.8782688e+11 </wgt>
<wgt id='1382'> +2.8084041e+11 </wgt>
<wgt id='1383'> +2.8056712e+11 </wgt>
<wgt id='1384'> +2.7619894e+11 </wgt>
<wgt id='1385'> +2.7810206e+11 </wgt>
<wgt id='1386'> +2.7999992e+11 </wgt>
<wgt id='1387'> +2.8375299e+11 </wgt>
<wgt id='1388'> +2.8104755e+11 </wgt>
<wgt id='1389'> +2.8029710e+11 </wgt>
<wgt id='1390'> +2.8807917e+11 </wgt>
<wgt id='1391'> +2.8797781e+11 </wgt>
<wgt id='1392'> +2.7635126e+11 </wgt>
<wgt id='1393'> +2.8819139e+11 </wgt>
<wgt id='1394'> +2.8637331e+11 </wgt>
<wgt id='1395'> +2.7722760e+11 </wgt>
<wgt id='1396'> +2.8448667e+11 </wgt>
<wgt id='1397'> +2.8360659e+11 </wgt>
<wgt id='1398'> +2.9327470e+11 </wgt>
<wgt id='1399'> +2.8226822e+11 </wgt>
<wgt id='1400'> +2.7763475e+11 </wgt>
<wgt id='1401'> +2.8357429e+11 </wgt>
<wgt id='1402'> +2.8622951e+11 </wgt>
<wgt id='1403'> +2.9774632e+11 </wgt>
<wgt id='1404'> +2.8933074e+11 </wgt>
<wgt id='1405'> +2.9547996e+11 </wgt>
<wgt id='1406'> +2.9092082e+11 </wgt>
<wgt id='1407'> +2.8913329e+11 </wgt>
<wgt id='1408'> +2.9692689e+11 </wgt>
<wgt id='1409'> +2.7699274e+11 </wgt>
<wgt id='1410'> +2.7720786e+11 </wgt>
<wgt id='1411'> +2.8390706e+11 </wgt>
<wgt id='1412'> +2.8853165e+11 </wgt>
<wgt id='1413'> +2.9225333e+11 </wgt>
<wgt id='1414'> +2.8711082e+11 </wgt>
<wgt id='1415'> +2.7841515e+11 </wgt>
<wgt id='1416'> +2.8397355e+11 </wgt>
<wgt id='1417'> +2.8157704e+11 </wgt>
<wgt id='1418'> +2.8176473e+11 </wgt>
<wgt id='1419'> +2.8641731e+11 </wgt>
<wgt id='1420'> +2.7277529e+11 </wgt>
<wgt id='1421'> +2.9306807e+11 </wgt>
<wgt id='1422'> +2.7464309e+11 </wgt>
<wgt id='1423'> +2.8626454e+11 </wgt>
<wgt id='1424'> +2.8206301e+11 </wgt>
<wgt id='1425'> +2.8342859e+11 </wgt>
<wgt id='1426'> +2.8867393e+11 </wgt>
<wgt id='1427'> +2.8069229e+11 </wgt>
<wgt id='1428'> +2.7983475e+11 </wgt>
<wgt id='1429'> +2.8546445e+11 </wgt>
<wgt id='1430'> +2.8091324e+11 </wgt>
<wgt id='1431'> +2.8542291e+11 </wgt>
<wgt id='1432'> +2.7626827e+11 </wgt>
<wgt id='1433'> +2.7564236e+11 </wgt>
<wgt id='1434'> +2.8781084e+11 </wgt>
<wgt id='1435'> +2.8550747e+11 </wgt>
<wgt id='1436'> +2.8806965e+11 </wgt>
<wgt id='1437'> +2.8173073e+11 </wgt>
<wgt id='1438'> +2.8405361e+11 </wgt>
<wgt id='1439'> +2.9415723e+11 </wgt>
<wgt id='1440'> +2.8326504e+11 </wgt>
<wgt id='1441'> +2.7953523e+11 </wgt>
<wgt id='1442'> +2.8450842e+11 </wgt>
<wgt id='1443'> +2.7799535e+11 </wgt>
<wgt id='1444'> +2.9506678e+11 </wgt>
<wgt id='1445'> +2.8032613e+11 </wgt>
<wgt id='1446'> +2.9746511e+11 </wgt>
<wgt id='1447'> +2.8779887e+11 </wgt>
<wgt id='1448'> +2.8759666e+11 </wgt>
<wgt id='1449'> +2.8649797e+11 </wgt>
<wgt id='1450'> +2.8221324e+11 </wgt>
<wgt id='1451'> +2.8115292e+11 </wgt>
<wgt id='1452'> +2.8755026e+11 </wgt>
<wgt id='1453'> +2.8961806e+11 </wgt>
<wgt id='1454'> +2.7431700e+11 </wgt>
<wgt id='1455'> +2.8277796e+11 </wgt>
<wgt id='1456'> +2.8155675e+11 </wgt>
<wgt id='1457'> +2.8554830e+11 </wgt>
<wgt id='1458'> +2.9409939e+11 </wgt>
<wgt id='1459'> +3.1580305e+11 </wgt>
<wgt id='1460'> +3.1002619e+11 </wgt>
<wgt id='1461'> +3.7778069e+11 </wgt>
<wgt id='1462'> +3.0730762e+11 </wgt>
<wgt id='1463'> +3.0751837e+11 </wgt>
<wgt id='1464'> +3.0703732e+11 </wgt>
<wgt id='1465'> +3.0738021e+11 </wgt>
<wgt id='1466'> +3.0724132e+11 </wgt>
<wgt id='1467'> +3.0739805e+11 </wgt>
<wgt id='1468'> +3.0715924e+11 </wgt>
<wgt id='1469'> +3.0687375e+11 </wgt>
<wgt id='1470'> +3.0765996e+11 </wgt>
<wgt id='1471'> +3.0775018e+11 </wgt>
<wgt id='1472'> +3.0685177e+11 </wgt>
<wgt id='1473'> +3.0855802e+11 </wgt>
<wgt id='1474'> +3.0610656e+11 </wgt>
<wgt id='1475'> +3.0848036e+11 </wgt>
<wgt id='1476'> +3.0647647e+11 </wgt>
<wgt id='1477'> +3.0676112e+11 </wgt>
<wgt id='1478'> +3.0858471e+11 </wgt>
<wgt id='1479'> +3.0709194e+11 </wgt>
<wgt id='1480'> +3.0746582e+11 </wgt>
<wgt id='1481'> +3.0659871e+11 </wgt>
<wgt id='1482'> +3.0826901e+11 </wgt>
<wgt id='1483'> +3.0733305e+11 </wgt>
<wgt id='1484'> +3.0727928e+11 </wgt>
<wgt id='1485'> +3.0750789e+11 </wgt>
<wgt id='1486'> +3.0682492e+11 </wgt>
<wgt id='1487'> +3.0758749e+11 </wgt>
<wgt id='1488'> +3.0695606e+11 </wgt>
<wgt id='1489'> +3.0690991e+11 </wgt>
<wgt id='1490'> +3.0838654e+11 </wgt>
<wgt id='1491'> +3.1260910e+11 </wgt>
<wgt id='1492'> +3.0435603e+11 </wgt>
<wgt id='1493'> +3.0344769e+11 </wgt>
<wgt id='1494'> +3.1941482e+11 </wgt>
<wgt id='1495'> +3.0629813e+11 </wgt>
<wgt id='1496'> +3.0839280e+11 </wgt>
<wgt id='1497'> +3.0754917e+11 </wgt>
<wgt id='1498'> +3.0697846e+11 </wgt>
<wgt id='1499'> +3.0967459e+11 </wgt>
<wgt id='1500'> +3.0601753e+11 </wgt>
<wgt id='1501'> +3.0749367e+11 </wgt>
<wgt id='1502'> +3.0683524e+11 </wgt>
<wgt id='1503'> +3.0169943e+11 </wgt>
<wgt id='1504'> +3.1376150e+11 </wgt>
<wgt id='1505'> +3.0770150e+11 </wgt>
<wgt id='1506'> +3.0691543e+11 </wgt>
<wgt id='1507'> +3.1242967e+11 </wgt>
<wgt id='1508'> +2.9813611e+11 </wgt>
<wgt id='1509'> +3.0829173e+11 </wgt>
<wgt id='1510'> +3.0304981e+11 </wgt>
<wgt id='1511'> +3.0854017e+11 </wgt>
<wgt id='1512'> +3.0706384e+11 </wgt>
<wgt id='1513'> +3.0700268e+11 </wgt>
<wgt id='1514'> +3.0766482e+11 </wgt>
<wgt id='1515'> +3.1255360e+11 </wgt>
<wgt id='1516'> +3.0591627e+11 </wgt>
<wgt id='1517'> +3.0658917e+11 </wgt>
<wgt id='1518'> +3.0850810e+11 </wgt>
<wgt id='1519'> +3.0500655e+11 </wgt>
<wgt id='1520'> +3.0893331e+11 </wgt>
<wgt id='1521'> +3.0566045e+11 </wgt>
<wgt id='1522'> +3.0821419e+11 </wgt>
<wgt id='1523'> +3.0856866e+11 </wgt>
<wgt id='1524'> +3.0912542e+11 </wgt>
<wgt id='1525'> +3.0769905e+11 </wgt>
<wgt id='1526'> +3.0932637e+11 </wgt>
<wgt id='1527'> +3.0730762e+11 </wgt>
<wgt id='1528'> +3.0516278e+11 </wgt>
<wgt id='1529'> +3.0938191e+11 </wgt>
<wgt id='1530'> +3.0076288e+11 </wgt>
<wgt id='1531'> +3.1495272e+11 </wgt>
<wgt id='1532'> +3.1635569e+11 </wgt>
<wgt id='1533'> +3.0874378e+11 </wgt>
<wgt id='1534'> +3.1285054e+11 </wgt>
<wgt id='1535'> +3.1885511e+11 </wgt>
<wgt id='1536'> +3.1050605e+11 </wgt>
<wgt id='1537'> +3.1865918e+11 </wgt>
<wgt id='1538'> +3.1011726e+11 </wgt>
<wgt id='1539'> +3.2004450e+11 </wgt>
<wgt id='1540'> +3.1767723e+11 </wgt>
<wgt id='1541'> +3.1743495e+11 </wgt>
<wgt id='1542'> +3.1552397e+11 </wgt>
<wgt id='1543'> +3.1759252e+11 </wgt>
<wgt id='1544'> +3.1314088e+11 </wgt>
<wgt id='1545'> +3.1300567e+11 </wgt>
<wgt id='1546'> +3.1132779e+11 </wgt>
<wgt id='1547'> +3.1716531e+11 </wgt>
<wgt id='1548'> +3.1427849e+11 </wgt>
<wgt id='1549'> +3.1132221e+11 </wgt>
<wgt id='1550'> +3.1806453e+11 </wgt>
<wgt id='1551'> +3.1559962e+11 </wgt>
<wgt id='1552'> +3.1547475e+11 </wgt>
<wgt id='1553'> +3.2301887e+11 </wgt>
<wgt id='1554'> +3.1557163e+11 </wgt>
<wgt id='1555'> +3.1602335e+11 </wgt>
<wgt id='1556'> +3.1694786e+11 </wgt>
<wgt id='1557'> +3.1482436e+11 </wgt>
<wgt id='1558'> +3.1525219e+11 </wgt>
<wgt id='1559'> +3.1246287e+11 </wgt>
<wgt id='1560'> +3.1440183e+11 </wgt>
<wgt id='1561'> +3.1374621e+11 </wgt>
<wgt id='1562'> +3.1232134e+11 </wgt>
<wgt id='1563'> +3.1536281e+11 </wgt>
<wgt id='1564'> +3.1465500e+11 </wgt>
<wgt id='1565'> +3.1904659e+11 </wgt>
<wgt id='1566'> +3.1493334e+11 </wgt>
<wgt id='1567'> +3.1406057e+11 </wgt>
<wgt id='1568'> +3.1475444e+11 </wgt>
<wgt id='1569'> +3.1419873e+11 </wgt>
<wgt id='1570'> +3.2238603e+11 </wgt>
<wgt id='1571'> +3.1493977e+11 </wgt>
<wgt id='1572'> +3.1572831e+11 </wgt>
<wgt id='1573'> +3.2075227e+11 </wgt>
<wgt id='1574'> +2.4654313e+11 </wgt>
<wgt id='1575'> +2.4660585e+11 </wgt>
<wgt id='1576'> +2.4647374e+11 </wgt>
<wgt id='1577'> +2.4656077e+11 </wgt>
<wgt id='1578'> +2.4711168e+11 </wgt>
<wgt id='1579'> +2.4728888e+11 </wgt>
<wgt id='1580'> +2.4705054e+11 </wgt>
<wgt id='1581'> +2.4618151e+11 </wgt>
<wgt id='1582'> +2.4593963e+11 </wgt>
<wgt id='1583'> +2.4605666e+11 </wgt>
<wgt id='1584'> +2.4710202e+11 </wgt>
<wgt id='1585'> +2.4685450e+11 </wgt>
<wgt id='1586'> +2.4589836e+11 </wgt>
<wgt id='1587'> +2.4597951e+11 </wgt>
<wgt id='1588'> +2.4557705e+11 </wgt>
<wgt id='1589'> +2.4616381e+11 </wgt>
<wgt id='1590'> +2.4640478e+11 </wgt>
<wgt id='1591'> +2.4662619e+11 </wgt>
<wgt id='1592'> +2.4561437e+11 </wgt>
<wgt id='1593'> +2.4531741e+11 </wgt>
<wgt id='1594'> +2.4776151e+11 </wgt>
<wgt id='1595'> +2.4384414e+11 </wgt>
<wgt id='1596'> +2.5118273e+11 </wgt>
<wgt id='1597'> +2.4837297e+11 </wgt>
<wgt id='1598'> +2.4841903e+11 </wgt>
<wgt id='1599'> +2.4337556e+11 </wgt>
<wgt id='1600'> +2.5172093e+11 </wgt>
<wgt id='1601'> +2.4869901e+11 </wgt>
<wgt id='1602'> +2.4666822e+11 </wgt>
<wgt id='1603'> +2.6274794e+11 </wgt>
<wgt id='1604'> +2.4656392e+11 </wgt>
</rwgt>
</event>
<event>
 9      1 +2.8343000e+11 1.39999900e+03 7.81738600e-03 7.88881200e-02
       21 -1    0    0  504  503 +0.0000000000e+00 +0.0000000000e+00 +7.4865558208e+02 7.4865558208e+02 0.0000000000e+00 0.0000e+00 1.0000e+00
       21 -1    0    0  503  504 -0.0000000000e+00 -0.0000000000e+00 -6.5450538373e+02 6.5450538373e+02 0.0000000000e+00 0.0000e+00 1.0000e+00
       45  2    1    2    0    0 +0.0000000000e+00 +0.0000000000e+00 +9.4150198353e+01 1.4031609658e+03 1.3999987272e+03 0.0000e+00 0.0000e+00
       25  2    3    3    0    0 -1.3558804544e+02 -5.5359599246e+02 -3.4515316039e+02 6.7794370573e+02 1.2499729232e+02 0.0000e+00 0.0000e+00
       35  2    3    3    0    0 +1.3558804544e+02 +5.5359599246e+02 +4.3930335874e+02 7.2521726007e+02 8.9999957605e+01 0.0000e+00 0.0000e+00
        5  1    5    5  501    0 +3.4021604979e+00 +1.9048205591e+02 +1.4735179054e+02 2.4088440442e+02 4.2140000000e+00 0.0000e+00 1.0000e+00
       -5  1    5    5    0  501 +1.3218588494e+02 +3.6311393655e+02 +2.9195156820e+02 4.8433285565e+02 4.2140000000e+00 0.0000e+00 1.0000e+00
        5  1    4    4  502    0 -5.4416630571e+01 -5.9628423580e+01 -2.9106200288e+01 8.5916513386e+01 4.2140000000e+00 0.0000e+00 1.0000e+00
       -5  1    4    4    0  502 -8.1171414871e+01 -4.9396756888e+02 -3.1604696010e+02 5.9202719235e+02 4.2140000000e+00 0.0000e+00 1.0000e+00
<mgrwt>
<rscale>  0 0.13999987E+04</rscale>
<asrwt>0</asrwt>
<pdfrwt beam="1">  1       21 0.11517778E+00 0.13999987E+04</pdfrwt>
<pdfrwt beam="2">  1       21 0.10069314E+00 0.13999987E+04</pdfrwt>
<totfact> 0.35745075E+02</totfact>
</mgrwt>
<rwgt>
<wgt id='1001'> +2.8343000e+11 </wgt>
<wgt id='1002'> +2.9214974e+11 </wgt>
<wgt id='1003'> +2.9214797e+11 </wgt>
<wgt id='1004'> +3.2815436e+11 </wgt>
<wgt id='1005'> +2.8343000e+11 </wgt>
<wgt id='1006'> +2.8343000e+11 </wgt>
<wgt id='1007'> +2.9214974e+11 </wgt>
<wgt id='1008'> +2.9214797e+11 </wgt>
<wgt id='1009'> +3.2815436e+11 </wgt>
<wgt id='1010'> +2.8343000e+11 </wgt>
<wgt id='1011'> +2.8343000e+11 </wgt>
<wgt id='1012'> +2.9214974e+11 </wgt>
<wgt id='1013'> +2.9214797e+11 </wgt>
<wgt id='1014'> +3.2815436e+11 </wgt>
<wgt id='1015'> +2.8343000e+11 </wgt>
<wgt id='1016'> +2.5468815e+11 </wgt>
<wgt id='1017'> +2.6206583e+11 </wgt>
<wgt id='1018'> +2.6206434e+11 </wgt>
<wgt id='1019'> +2.9214797e+11 </wgt>
<wgt id='1020'> +2.5468815e+11 </wgt>
<wgt id='1021'> +2.5468815e+11 </wgt>
<wgt id='1022'> +2.6206583e+11 </wgt>
<wgt id='1023'> +2.6206434e+11 </wgt>
<wgt id='1024'> +2.9214797e+11 </wgt>
<wgt id='1025'> +2.5468815e+11 </wgt>
<wgt id='1026'> +2.5468815e+11 </wgt>
<wgt id='1027'> +2.6206583e+11 </wgt>
<wgt id='1028'> +2.6206434e+11 </wgt>
<wgt id='1029'> +2.9214797e+11 </wgt>
<wgt id='1030'> +2.5468815e+11 </wgt>
<wgt id='1031'> +3.1768148e+11 </wgt>
<wgt id='1032'> +3.2815649e+11 </wgt>
<wgt id='1033'> +3.2815436e+11 </wgt>
<wgt id='1034'> +3.7156228e+11 </wgt>
<wgt id='1035'> +3.1768147e+11 </wgt>
<wgt id='1036'> +3.1768148e+11 </wgt>
<wgt id='1037'> +3.2815649e+11 </wgt>
<wgt id='1038'> +3.2815436e+11 </wgt>
<wgt id='1039'> +3.7156228e+11 </wgt>
<wgt id='1040'> +3.1768147e+11 </wgt>
<wgt id='1041'> +3.1768148e+11 </wgt>
<wgt id='1042'> +3.2815649e+11 </wgt>
<wgt id='1043'> +3.2815436e+11 </wgt>
<wgt id='1044'> +3.7156228e+11 </wgt>
<wgt id='1045'> +3.1768147e+11 </wgt>
<wgt id='1046'> +2.8343000e+11 </wgt>
<wgt id='1047'> +2.8343000e+11 </wgt>
<wgt id='1048'> +2.8343000e+11 </wgt>
<wgt id='1049'> +2.8227058e+11 </wgt>
<wgt id='1050'> +2.8305031e+11 </wgt>
<wgt id='1051'> +2.8375216e+11 </wgt>
<wgt id='1052'> +2.8420336e+11 </wgt>
<wgt id='1053'> +2.8189163e+11 </wgt>
<wgt id='1054'> +2.8388170e+11 </wgt>
<wgt id='1055'> +2.8224900e+11 </wgt>
<wgt id='1056'> +2.8180932e+11 </wgt>
<wgt id='1057'> +2.8421194e+11 </wgt>
<wgt id='1058'> +2.8305405e+11 </wgt>
<wgt id='1059'> +2.8541169e+11 </wgt>
<wgt id='1060'> +2.8366128e+11 </wgt>
<wgt id='1061'> +2.8420723e+11 </wgt>
<wgt id='1062'> +2.8401157e+11 </wgt>
<wgt id='1063'> +2.8365665e+11 </wgt>
<wgt id='1064'> +2.8469337e+11 </wgt>
<wgt id='1065'> +2.8487314e+11 </wgt>
<wgt id='1066'> +2.8199273e+11 </wgt>
<wgt id='1067'> +2.7969822e+11 </wgt>
<wgt id='1068'> +2.8381083e+11 </wgt>
<wgt id='1069'> +2.8278639e+11 </wgt>
<wgt id='1070'> +2.8342279e+11 </wgt>
<wgt id='1071'> +2.8490646e+11 </wgt>
<wgt id='1072'> +2.8112274e+11 </wgt>
<wgt id='1073'> +2.8411522e+11 </wgt>
<wgt id='1074'> +2.8304514e+11 </wgt>
<wgt id='1075'> +2.8440903e+11 </wgt>
<wgt id='1076'> +2.8323821e+11 </wgt>
<wgt id='1077'> +2.8296499e+11 </wgt>
<wgt id='1078'> +2.8409891e+11 </wgt>
<wgt id='1079'> +2.8178245e+11 </wgt>
<wgt id='1080'> +2.8277267e+11 </wgt>
<wgt id='1081'> +2.8302411e+11 </wgt>
<wgt id='1082'> +2.8204321e+11 </wgt>
<wgt id='1083'> +2.8399630e+11 </wgt>
<wgt id='1084'> +2.8406984e+11 </wgt>
<wgt id='1085'> +2.8285642e+11 </wgt>
<wgt id='1086'> +2.8279949e+11 </wgt>
<wgt id='1087'> +2.8308068e+11 </wgt>
<wgt id='1088'> +2.8293753e+11 </wgt>
<wgt id='1089'> +2.8279713e+11 </wgt>
<wgt id='1090'> +2.8413355e+11 </wgt>
<wgt id='1091'> +2.8348658e+11 </wgt>
<wgt id='1092'> +2.8370413e+11 </wgt>
<wgt id='1093'> +2.8332757e+11 </wgt>
<wgt id='1094'> +2.8291144e+11 </wgt>
<wgt id='1095'> +2.8354578e+11 </wgt>
<wgt id='1096'> +2.8338786e+11 </wgt>
<wgt id='1097'> +2.8303775e+11 </wgt>
<wgt id='1098'> +2.8307695e+11 </wgt>
<wgt id='1099'> +2.8323429e+11 </wgt>
<wgt id='1100'> +2.8402108e+11 </wgt>
<wgt id='1101'> +2.8341272e+11 </wgt>
<wgt id='1102'> +2.8328673e+11 </wgt>
<wgt id='1103'> +2.8310180e+11 </wgt>
<wgt id='1104'> +2.8310300e+11 </wgt>
<wgt id='1105'> +2.8353660e+11 </wgt>
<wgt id='1106'> +2.8376789e+11 </wgt>
<wgt id='1107'> +2.8334258e+11 </wgt>
<wgt id='1108'> +2.8333608e+11 </wgt>
<wgt id='1109'> +2.8324186e+11 </wgt>
<wgt id='1110'> +2.8376072e+11 </wgt>
<wgt id='1111'> +2.8356073e+11 </wgt>
<wgt id='1112'> +2.8339643e+11 </wgt>
<wgt id='1113'> +2.8373757e+11 </wgt>
<wgt id='1114'> +2.8311086e+11 </wgt>
<wgt id='1115'> +2.8325894e+11 </wgt>
<wgt id='1116'> +2.8373296e+11 </wgt>
<wgt id='1117'> +2.8337452e+11 </wgt>
<wgt id='1118'> +2.8353413e+11 </wgt>
<wgt id='1119'> +2.8325454e+11 </wgt>
<wgt id='1120'> +2.8328742e+11 </wgt>
<wgt id='1121'> +2.8349979e+11 </wgt>
<wgt id='1122'> +2.8322682e+11 </wgt>
<wgt id='1123'> +2.8337264e+11 </wgt>
<wgt id='1124'> +2.8333417e+11 </wgt>
<wgt id='1125'> +2.8359066e+11 </wgt>
<wgt id='1126'> +2.8353569e+11 </wgt>
<wgt id='1127'> +2.8332196e+11 </wgt>
<wgt id='1128'> +2.8347418e+11 </wgt>
<wgt id='1129'> +2.8339235e+11 </wgt>
<wgt id='1130'> +2.8346640e+11 </wgt>
<wgt id='1131'> +2.8369438e+11 </wgt>
<wgt id='1132'> +2.8335315e+11 </wgt>
<wgt id='1133'> +2.8350624e+11 </wgt>
<wgt id='1134'> +2.8341091e+11 </wgt>
<wgt id='1135'> +2.8346784e+11 </wgt>
<wgt id='1136'> +2.8340098e+11 </wgt>
<wgt id='1137'> +2.8328904e+11 </wgt>
<wgt id='1138'> +2.8354238e+11 </wgt>
<wgt id='1139'> +2.8346788e+11 </wgt>
<wgt id='1140'> +2.8364298e+11 </wgt>
<wgt id='1141'> +2.8330632e+11 </wgt>
<wgt id='1142'> +2.8349898e+11 </wgt>
<wgt id='1143'> +2.8359280e+11 </wgt>
<wgt id='1144'> +2.8334566e+11 </wgt>
<wgt id='1145'> +2.8355280e+11 </wgt>
<wgt id='1146'> +2.8340968e+11 </wgt>
<wgt id='1147'> +2.8347330e+11 </wgt>
<wgt id='1148'> +2.8343000e+11 </wgt>
<wgt id='1149'> +2.8343000e+11 </wgt>
<wgt id='1150'> +2.9104893e+11 </wgt>
<wgt id='1151'> +2.8125326e+11 </wgt>
<wgt id='1152'> +2.8557100e+11 </wgt>
<wgt id='1153'> +2.8774146e+11 </wgt>
<wgt id='1154'> +2.8748827e+11 </wgt>
<wgt id='1155'> +2.8836318e+11 </wgt>
<wgt id='1156'> +2.7651854e+11 </wgt>
<wgt id='1157'> +2.7670022e+11 </wgt>
<wgt id='1158'> +2.7765848e+11 </wgt>
<wgt id='1159'> +2.9616392e+11 </wgt>
<wgt id='1160'> +2.8154802e+11 </wgt>
<wgt id='1161'> +2.8555344e+11 </wgt>
<wgt id='1162'> +2.7614072e+11 </wgt>
<wgt id='1163'> +2.8687460e+11 </wgt>
<wgt id='1164'> +2.6758589e+11 </wgt>
<wgt id='1165'> +2.7939232e+11 </wgt>
<wgt id='1166'> +2.8506308e+11 </wgt>
<wgt id='1167'> +2.7997329e+11 </wgt>
<wgt id='1168'> +2.7657746e+11 </wgt>
<wgt id='1169'> +2.7598353e+11 </wgt>
<wgt id='1170'> +2.7588005e+11 </wgt>
<wgt id='1171'> +2.7349467e+11 </wgt>
<wgt id='1172'> +2.7759258e+11 </wgt>
<wgt id='1173'> +2.8804679e+11 </wgt>
<wgt id='1174'> +2.7971823e+11 </wgt>
<wgt id='1175'> +2.7518876e+11 </wgt>
<wgt id='1176'> +2.8639142e+11 </wgt>
<wgt id='1177'> +2.7929848e+11 </wgt>
<wgt id='1178'> +2.8316637e+11 </wgt>
<wgt id='1179'> +2.8025569e+11 </wgt>
<wgt id='1180'> +2.8360060e+11 </wgt>
<wgt id='1181'> +2.7614134e+11 </wgt>
<wgt id='1182'> +2.8168218e+11 </wgt>
<wgt id='1183'> +2.9582852e+11 </wgt>
<wgt id='1184'> +2.7596080e+11 </wgt>
<wgt id='1185'> +2.8042563e+11 </wgt>
<wgt id='1186'> +2.7158572e+11 </wgt>
<wgt id='1187'> +2.8577688e+11 </wgt>
<wgt id='1188'> +2.7682584e+11 </wgt>
<wgt id='1189'> +2.8566990e+11 </wgt>
<wgt id='1190'> +2.8428457e+11 </wgt>
<wgt id='1191'> +2.9527984e+11 </wgt>
<wgt id='1192'> +2.9189929e+11 </wgt>
<wgt id='1193'> +2.9544080e+11 </wgt>
<wgt id='1194'> +2.8469076e+11 </wgt>
<wgt id='1195'> +2.8378698e+11 </wgt>
<wgt id='1196'> +2.9238625e+11 </wgt>
<wgt id='1197'> +2.9412726e+11 </wgt>
<wgt id='1198'> +2.7519823e+11 </wgt>
<wgt id='1199'> +2.8182965e+11 </wgt>
<wgt id='1200'> +2.8223698e+11 </wgt>
<wgt id='1201'> +2.7934264e+11 </wgt>
<wgt id='1202'> +2.8869916e+11 </wgt>
<wgt id='1203'> +2.7758172e+11 </wgt>
<wgt id='1204'> +2.8841786e+11 </wgt>
<wgt id='1205'> +2.8515782e+11 </wgt>
<wgt id='1206'> +2.7644637e+11 </wgt>
<wgt id='1207'> +2.9318890e+11 </wgt>
<wgt id='1208'> +2.7290351e+11 </wgt>
<wgt id='1209'> +2.7858769e+11 </wgt>
<wgt id='1210'> +2.8029660e+11 </wgt>
<wgt id='1211'> +2.8572778e+11 </wgt>
<wgt id='1212'> +2.8369894e+11 </wgt>
<wgt id='1213'> +2.9350645e+11 </wgt>
<wgt id='1214'> +2.7571238e+11 </wgt>
<wgt id='1215'> +2.9211547e+11 </wgt>
<wgt id='1216'> +2.8607287e+11 </wgt>
<wgt id='1217'> +2.7591693e+11 </wgt>
<wgt id='1218'> +2.8479881e+11 </wgt>
<wgt id='1219'> +2.9444054e+11 </wgt>
<wgt id='1220'> +2.7704759e+11 </wgt>
<wgt id='1221'> +2.7501930e+11 </wgt>
<wgt id='1222'> +2.8044415e+11 </wgt>
<wgt id='1223'> +2.7259935e+11 </wgt>
<wgt id='1224'> +2.8353403e+11 </wgt>
<wgt id='1225'> +2.8809169e+11 </wgt>
<wgt id='1226'> +2.9074564e+11 </wgt>
<wgt id='1227'> +2.7291676e+11 </wgt>
<wgt id='1228'> +2.8137426e+11 </wgt>
<wgt id='1229'> +3.0285687e+11 </wgt>
<wgt id='1230'> +2.9424229e+11 </wgt>
<wgt id='1231'> +2.7939232e+11 </wgt>
<wgt id='1232'> +2.8918208e+11 </wgt>
<wgt id='1233'> +2.7820273e+11 </wgt>
<wgt id='1234'> +2.7635379e+11 </wgt>
<wgt id='1235'> +3.0311365e+11 </wgt>
<wgt id='1236'> +2.7659875e+11 </wgt>
<wgt id='1237'> +2.8987852e+11 </wgt>
<wgt id='1238'> +2.8977738e+11 </wgt>
<wgt id='1239'> +2.9218516e+11 </wgt>
<wgt id='1240'> +2.8563343e+11 </wgt>
<wgt id='1241'> +2.8198146e+11 </wgt>
<wgt id='1242'> +2.8078472e+11 </wgt>
<wgt id='1243'> +2.8902406e+11 </wgt>
<wgt id='1244'> +2.8120812e+11 </wgt>
<wgt id='1245'> +2.8186068e+11 </wgt>
<wgt id='1246'> +3.0729431e+11 </wgt>
<wgt id='1247'> +2.8377331e+11 </wgt>
<wgt id='1248'> +2.7541886e+11 </wgt>
<wgt id='1249'> +2.7770185e+11 </wgt>
<wgt id='1250'> +2.9212635e+11 </wgt>
<wgt id='1251'> +2.9880730e+11 </wgt>
<wgt id='1252'> +2.8728992e+11 </wgt>
<wgt id='1253'> +2.8533022e+11 </wgt>
<wgt id='1254'> +2.8876330e+11 </wgt>
<wgt id='1255'> +2.9809943e+11 </wgt>
<wgt id='1256'> +2.9532354e+11 </wgt>
<wgt id='1257'> +2.8551373e+11 </wgt>
<wgt id='1258'> +3.0044290e+11 </wgt>
<wgt id='1259'> +2.9478680e+11 </wgt>
<wgt id='1260'> +3.2560748e+11 </wgt>
<wgt id='1261'> +3.1389138e+11 </wgt>
<wgt id='1262'> +2.8972375e+11 </wgt>
<wgt id='1263'> +2.9681429e+11 </wgt>
<wgt id='1264'> +2.9862329e+11 </wgt>
<wgt id='1265'> +2.9886617e+11 </wgt>
<wgt id='1266'> +2.9440106e+11 </wgt>
<wgt id='1267'> +3.1531554e+11 </wgt>
<wgt id='1268'> +2.9437413e+11 </wgt>
<wgt id='1269'> +2.8732391e+11 </wgt>
<wgt id='1270'> +2.9136126e+11 </wgt>
<wgt id='1271'> +2.7964457e+11 </wgt>
<wgt id='1272'> +2.9346285e+11 </wgt>
<wgt id='1273'> +2.9203450e+11 </wgt>
<wgt id='1274'> +2.8778198e+11 </wgt>
<wgt id='1275'> +2.9867567e+11 </wgt>
<wgt id='1276'> +2.9554361e+11 </wgt>
<wgt id='1277'> +2.9091449e+11 </wgt>
<wgt id='1278'> +2.8648138e+11 </wgt>
<wgt id='1279'> +2.8133054e+11 </wgt>
<wgt id='1280'> +2.9407844e+11 </wgt>
<wgt id='1281'> +2.8595790e+11 </wgt>
<wgt id='1282'> +2.9674842e+11 </wgt>
<wgt id='1283'> +2.9622108e+11 </wgt>
<wgt id='1284'> +3.1497010e+11 </wgt>
<wgt id='1285'> +3.0832106e+11 </wgt>
<wgt id='1286'> +3.2879858e+11 </wgt>
<wgt id='1287'> +3.0338211e+11 </wgt>
<wgt id='1288'> +3.2365651e+11 </wgt>
<wgt id='1289'> +3.1309773e+11 </wgt>
<wgt id='1290'> +3.1151350e+11 </wgt>
<wgt id='1291'> +2.7802664e+11 </wgt>
<wgt id='1292'> +2.9747549e+11 </wgt>
<wgt id='1293'> +3.0023689e+11 </wgt>
<wgt id='1294'> +3.1444764e+11 </wgt>
<wgt id='1295'> +2.9812832e+11 </wgt>
<wgt id='1296'> +3.1538028e+11 </wgt>
<wgt id='1297'> +2.9566887e+11 </wgt>
<wgt id='1298'> +2.8788251e+11 </wgt>
<wgt id='1299'> +2.9863659e+11 </wgt>
<wgt id='1300'> +2.8811730e+11 </wgt>
<wgt id='1301'> +2.8109480e+11 </wgt>
<wgt id='1302'> +2.7565704e+11 </wgt>
<wgt id='1303'> +2.9846943e+11 </wgt>
<wgt id='1304'> +3.0596848e+11 </wgt>
<wgt id='1305'> +2.9843414e+11 </wgt>
<wgt id='1306'> +3.0530003e+11 </wgt>
<wgt id='1307'> +3.0396461e+11 </wgt>
<wgt id='1308'> +3.2538638e+11 </wgt>
<wgt id='1309'> +2.9587658e+11 </wgt>
<wgt id='1310'> +3.0230189e+11 </wgt>
<wgt id='1311'> +3.0819108e+11 </wgt>
<wgt id='1312'> +2.9914858e+11 </wgt>
<wgt id='1313'> +2.9691749e+11 </wgt>
<wgt id='1314'> +3.0438721e+11 </wgt>
<wgt id='1315'> +2.8497274e+11 </wgt>
<wgt id='1316'> +2.9860484e+11 </wgt>
<wgt id='1317'> +3.0136138e+11 </wgt>
<wgt id='1318'> +2.8635202e+11 </wgt>
<wgt id='1319'> +3.0799058e+11 </wgt>
<wgt id='1320'> +3.0906306e+11 </wgt>
<wgt id='1321'> +2.9380871e+11 </wgt>
<wgt id='1322'> +2.9790440e+11 </wgt>
<wgt id='1323'> +2.9881285e+11 </wgt>
<wgt id='1324'> +3.0133291e+11 </wgt>
<wgt id='1325'> +3.1101448e+11 </wgt>
<wgt id='1326'> +3.0286538e+11 </wgt>
<wgt id='1327'> +2.9339791e+11 </wgt>
<wgt id='1328'> +3.0283641e+11 </wgt>
<wgt id='1329'> +2.9784799e+11 </wgt>
<wgt id='1330'> +2.9088369e+11 </wgt>
<wgt id='1331'> +3.1929395e+11 </wgt>
<wgt id='1332'> +2.8604545e+11 </wgt>
<wgt id='1333'> +3.0061540e+11 </wgt>
<wgt id='1334'> +3.1396875e+11 </wgt>
<wgt id='1335'> +2.9260534e+11 </wgt>
<wgt id='1336'> +3.0225839e+11 </wgt>
<wgt id='1337'> +3.0857324e+11 </wgt>
<wgt id='1338'> +2.8995511e+11 </wgt>
<wgt id='1339'> +3.2048120e+11 </wgt>
<wgt id='1340'> +3.0170527e+11 </wgt>
<wgt id='1341'> +3.0479850e+11 </wgt>
<wgt id='1342'> +3.1585192e+11 </wgt>
<wgt id='1343'> +3.1040380e+11 </wgt>
<wgt id='1344'> +3.0333221e+11 </wgt>
<wgt id='1345'> +2.8032467e+11 </wgt>
<wgt id='1346'> +2.9955097e+11 </wgt>
<wgt id='1347'> +2.8685510e+11 </wgt>
<wgt id='1348'> +2.8810491e+11 </wgt>
<wgt id='1349'> +2.9000587e+11 </wgt>
<wgt id='1350'> +3.0048496e+11 </wgt>
<wgt id='1351'> +2.9694597e+11 </wgt>
<wgt id='1352'> +3.0054023e+11 </wgt>
<wgt id='1353'> +2.9722322e+11 </wgt>
<wgt id='1354'> +3.0699098e+11 </wgt>
<wgt id='1355'> +2.7548317e+11 </wgt>
<wgt id='1356'> +2.7823886e+11 </wgt>
<wgt id='1357'> +2.7638588e+11 </wgt>
<wgt id='1358'> +2.7288538e+11 </wgt>
<wgt id='1359'> +2.7625636e+11 </wgt>
<wgt id='1360'> +2.6866933e+11 </wgt>
<wgt id='1361'> +2.7554201e+11 </wgt>
<wgt id='1362'> +2.7724271e+11 </wgt>
<wgt id='1363'> +2.6930417e+11 </wgt>
<wgt id='1364'> +2.8178443e+11 </wgt>
<wgt id='1365'> +2.7315210e+11 </wgt>
<wgt id='1366'> +2.7568135e+11 </wgt>
<wgt id='1367'> +2.7634305e+11 </wgt>
<wgt id='1368'> +2.7551469e+11 </wgt>
<wgt id='1369'> +2.7982950e+11 </wgt>
<wgt id='1370'> +2.7360892e+11 </wgt>
<wgt id='1371'> +2.7310839e+11 </wgt>
<wgt id='1372'> +2.8002614e+11 </wgt>
<wgt id='1373'> +2.7913998e+11 </wgt>
<wgt id='1374'> +2.6738267e+11 </wgt>
<wgt id='1375'> +2.7434241e+11 </wgt>
<wgt id='1376'> +2.7640826e+11 </wgt>
<wgt id='1377'> +2.7538266e+11 </wgt>
<wgt id='1378'> +2.7123036e+11 </wgt>
<wgt id='1379'> +2.7395120e+11 </wgt>
<wgt id='1380'> +2.7392226e+11 </wgt>
<wgt id='1381'> +2.8080583e+11 </wgt>
<wgt id='1382'> +2.7512278e+11 </wgt>
<wgt id='1383'> +2.7548601e+11 </wgt>
<wgt id='1384'> +2.7387107e+11 </wgt>
<wgt id='1385'> +2.7406473e+11 </wgt>
<wgt id='1386'> +2.7748919e+11 </wgt>
<wgt id='1387'> +2.7449753e+11 </wgt>
<wgt id='1388'> +2.7180114e+11 </wgt>
<wgt id='1389'> +2.7376486e+11 </wgt>
<wgt id='1390'> +2.7437493e+11 </wgt>
<wgt id='1391'> +2.7322081e+11 </wgt>
<wgt id='1392'> +2.7332857e+11 </wgt>
<wgt id='1393'> +2.7342828e+11 </wgt>
<wgt id='1394'> +2.7317298e+11 </wgt>
<wgt id='1395'> +2.7124207e+11 </wgt>
<wgt id='1396'> +2.7653424e+11 </wgt>
<wgt id='1397'> +2.7607819e+11 </wgt>
<wgt id='1398'> +2.7608545e+11 </wgt>
<wgt id='1399'> +2.7106018e+11 </wgt>
<wgt id='1400'> +2.7256979e+11 </wgt>
<wgt id='1401'> +2.7395155e+11 </wgt>
<wgt id='1402'> +2.7874655e+11 </wgt>
<wgt id='1403'> +2.7852529e+11 </wgt>
<wgt id='1404'> +2.7320912e+11 </wgt>
<wgt id='1405'> +2.8159604e+11 </wgt>
<wgt id='1406'> +2.7519483e+11 </wgt>
<wgt id='1407'> +2.7620011e+11 </wgt>
<wgt id='1408'> +2.7862701e+11 </wgt>
<wgt id='1409'> +2.7342641e+11 </wgt>
<wgt id='1410'> +2.7326534e+11 </wgt>
<wgt id='1411'> +2.7516471e+11 </wgt>
<wgt id='1412'> +2.7439414e+11 </wgt>
<wgt id='1413'> +2.7238540e+11 </wgt>
<wgt id='1414'> +2.7717136e+11 </wgt>
<wgt id='1415'> +2.8132686e+11 </wgt>
<wgt id='1416'> +2.7864356e+11 </wgt>
<wgt id='1417'> +2.6872041e+11 </wgt>
<wgt id='1418'> +2.7718243e+11 </wgt>
<wgt id='1419'> +2.7900818e+11 </wgt>
<wgt id='1420'> +2.7473072e+11 </wgt>
<wgt id='1421'> +2.8153705e+11 </wgt>
<wgt id='1422'> +2.6787833e+11 </wgt>
<wgt id='1423'> +2.8073651e+11 </wgt>
<wgt id='1424'> +2.7649162e+11 </wgt>
<wgt id='1425'> +2.7568184e+11 </wgt>
<wgt id='1426'> +2.7907293e+11 </wgt>
<wgt id='1427'> +2.7545333e+11 </wgt>
<wgt id='1428'> +2.7534533e+11 </wgt>
<wgt id='1429'> +2.7125143e+11 </wgt>
<wgt id='1430'> +2.7072221e+11 </wgt>
<wgt id='1431'> +2.7080353e+11 </wgt>
<wgt id='1432'> +2.7746629e+11 </wgt>
<wgt id='1433'> +2.7617953e+11 </wgt>
<wgt id='1434'> +2.8214380e+11 </wgt>
<wgt id='1435'> +2.7462585e+11 </wgt>
<wgt id='1436'> +2.7966611e+11 </wgt>
<wgt id='1437'> +2.7823758e+11 </wgt>
<wgt id='1438'> +2.7349043e+11 </wgt>
<wgt id='1439'> +2.7613416e+11 </wgt>
<wgt id='1440'> +2.8012300e+11 </wgt>
<wgt id='1441'> +2.7544957e+11 </wgt>
<wgt id='1442'> +2.8319122e+11 </wgt>
<wgt id='1443'> +2.7366874e+11 </wgt>
<wgt id='1444'> +2.7372065e+11 </wgt>
<wgt id='1445'> +2.7849458e+11 </wgt>
<wgt id='1446'> +2.7764406e+11 </wgt>
<wgt id='1447'> +2.7145016e+11 </wgt>
<wgt id='1448'> +2.7783896e+11 </wgt>
<wgt id='1449'> +2.7679075e+11 </wgt>
<wgt id='1450'> +2.7357042e+11 </wgt>
<wgt id='1451'> +2.7671996e+11 </wgt>
<wgt id='1452'> +2.7870110e+11 </wgt>
<wgt id='1453'> +2.8061859e+11 </wgt>
<wgt id='1454'> +2.6888241e+11 </wgt>
<wgt id='1455'> +2.7473096e+11 </wgt>
<wgt id='1456'> +2.7472407e+11 </wgt>
<wgt id='1457'> +2.7425704e+11 </wgt>
<wgt id='1458'> +2.7731929e+11 </wgt>
<wgt id='1459'> +3.0486672e+11 </wgt>
<wgt id='1460'> +3.0019396e+11 </wgt>
<wgt id='1461'> +3.4711505e+11 </wgt>
<wgt id='1462'> +2.9965330e+11 </wgt>
<wgt id='1463'> +2.9990384e+11 </wgt>
<wgt id='1464'> +2.9933201e+11 </wgt>
<wgt id='1465'> +2.9971462e+11 </wgt>
<wgt id='1466'> +2.9959730e+11 </wgt>
<wgt id='1467'> +2.9981734e+11 </wgt>
<wgt id='1468'> +2.9938418e+11 </wgt>
<wgt id='1469'> +2.9920230e+11 </wgt>
<wgt id='1470'> +3.0001962e+11 </wgt>
<wgt id='1471'> +3.0013254e+11 </wgt>
<wgt id='1472'> +2.9915971e+11 </wgt>
<wgt id='1473'> +3.0080319e+11 </wgt>
<wgt id='1474'> +2.9854886e+11 </wgt>
<wgt id='1475'> +3.0075101e+11 </wgt>
<wgt id='1476'> +2.9887504e+11 </wgt>
<wgt id='1477'> +2.9907919e+11 </wgt>
<wgt id='1478'> +3.0099440e+11 </wgt>
<wgt id='1479'> +2.9907312e+11 </wgt>
<wgt id='1480'> +3.0005823e+11 </wgt>
<wgt id='1481'> +2.9923414e+11 </wgt>
<wgt id='1482'> +3.0021851e+11 </wgt>
<wgt id='1483'> +2.9975189e+11 </wgt>
<wgt id='1484'> +2.9951327e+11 </wgt>
<wgt id='1485'> +2.9985420e+11 </wgt>
<wgt id='1486'> +2.9916952e+11 </wgt>
<wgt id='1487'> +2.9990142e+11 </wgt>
<wgt id='1488'> +2.9934116e+11 </wgt>
<wgt id='1489'> +2.9930234e+11 </wgt>
<wgt id='1490'> +3.0060473e+11 </wgt>
<wgt id='1491'> +3.0457317e+11 </wgt>
<wgt id='1492'> +2.9690714e+11 </wgt>
<wgt id='1493'> +2.9615808e+11 </wgt>
<wgt id='1494'> +3.1060705e+11 </wgt>
<wgt id='1495'> +2.9902277e+11 </wgt>
<wgt id='1496'> +3.0032958e+11 </wgt>
<wgt id='1497'> +2.9985223e+11 </wgt>
<wgt id='1498'> +2.9938144e+11 </wgt>
<wgt id='1499'> +3.0151753e+11 </wgt>
<wgt id='1500'> +2.9863339e+11 </wgt>
<wgt id='1501'> +3.0012010e+11 </wgt>
<wgt id='1502'> +2.9841604e+11 </wgt>
<wgt id='1503'> +2.9653804e+11 </wgt>
<wgt id='1504'> +3.0295391e+11 </wgt>
<wgt id='1505'> +3.0068806e+11 </wgt>
<wgt id='1506'> +2.9866017e+11 </wgt>
<wgt id='1507'> +3.0091526e+11 </wgt>
<wgt id='1508'> +2.9901487e+11 </wgt>
<wgt id='1509'> +3.0022261e+11 </wgt>
<wgt id='1510'> +2.9721029e+11 </wgt>
<wgt id='1511'> +3.0075791e+11 </wgt>
<wgt id='1512'> +2.9934317e+11 </wgt>
<wgt id='1513'> +2.9957525e+11 </wgt>
<wgt id='1514'> +2.9972315e+11 </wgt>
<wgt id='1515'> +3.0203406e+11 </wgt>
<wgt id='1516'> +3.0013163e+11 </wgt>
<wgt id='1517'> +2.9928396e+11 </wgt>
<wgt id='1518'> +2.9995129e+11 </wgt>
<wgt id='1519'> +2.9803550e+11 </wgt>
<wgt id='1520'> +3.0080491e+11 </wgt>
<wgt id='1521'> +2.9889795e+11 </wgt>
<wgt id='1522'> +3.0010784e+11 </wgt>
<wgt id='1523'> +3.0102518e+11 </wgt>
<wgt id='1524'> +3.0100003e+11 </wgt>
<wgt id='1525'> +3.0090468e+11 </wgt>
<wgt id='1526'> +3.0041569e+11 </wgt>
<wgt id='1527'> +2.9965330e+11 </wgt>
<wgt id='1528'> +2.9949491e+11 </wgt>
<wgt id='1529'> +2.9927922e+11 </wgt>
<wgt id='1530'> +2.9551262e+11 </wgt>
<wgt id='1531'> +2.9641602e+11 </wgt>
<wgt id='1532'> +2.9402653e+11 </wgt>
<wgt id='1533'> +2.9203240e+11 </wgt>
<wgt id='1534'> +2.9480301e+11 </wgt>
<wgt id='1535'> +2.9888893e+11 </wgt>
<wgt id='1536'> +2.9334001e+11 </wgt>
<wgt id='1537'> +2.9630553e+11 </wgt>
<wgt id='1538'> +2.9325090e+11 </wgt>
<wgt id='1539'> +3.0265742e+11 </wgt>
<wgt id='1540'> +2.9554451e+11 </wgt>
<wgt id='1541'> +2.9651622e+11 </wgt>
<wgt id='1542'> +2.9631746e+11 </wgt>
<wgt id='1543'> +2.9744203e+11 </wgt>
<wgt id='1544'> +2.9451497e+11 </wgt>
<wgt id='1545'> +2.9446037e+11 </wgt>
<wgt id='1546'> +2.9251983e+11 </wgt>
<wgt id='1547'> +2.9870866e+11 </wgt>
<wgt id='1548'> +2.9440371e+11 </wgt>
<wgt id='1549'> +2.9308299e+11 </wgt>
<wgt id='1550'> +2.9700907e+11 </wgt>
<wgt id='1551'> +2.9706333e+11 </wgt>
<wgt id='1552'> +2.9572900e+11 </wgt>
<wgt id='1553'> +2.9820494e+11 </wgt>
<wgt id='1554'> +2.9625571e+11 </wgt>
<wgt id='1555'> +2.9701362e+11 </wgt>
<wgt id='1556'> +2.9877482e+11 </wgt>
<wgt id='1557'> +2.9571796e+11 </wgt>
<wgt id='1558'> +2.9639041e+11 </wgt>
<wgt id='1559'> +2.9439986e+11 </wgt>
<wgt id='1560'> +2.9520241e+11 </wgt>
<wgt id='1561'> +2.9245378e+11 </wgt>
<wgt id='1562'> +2.9497526e+11 </wgt>
<wgt id='1563'> +2.9633564e+11 </wgt>
<wgt id='1564'> +2.9603520e+11 </wgt>
<wgt id='1565'> +2.9861133e+11 </wgt>
<wgt id='1566'> +2.9671846e+11 </wgt>
<wgt id='1567'> +2.9998347e+11 </wgt>
<wgt id='1568'> +2.9636055e+11 </wgt>
<wgt id='1569'> +2.9605390e+11 </wgt>
<wgt id='1570'> +2.9796349e+11 </wgt>
<wgt id='1571'> +2.9621132e+11 </wgt>
<wgt id='1572'> +2.9810852e+11 </wgt>
<wgt id='1573'> +2.9919216e+11 </wgt>
<wgt id='1574'> +2.6456897e+11 </wgt>
<wgt id='1575'> +2.6464113e+11 </wgt>
<wgt id='1576'> +2.6450131e+11 </wgt>
<wgt id='1577'> +2.6458722e+11 </wgt>
<wgt id='1578'> +2.6517818e+11 </wgt>
<wgt id='1579'> +2.6543622e+11 </wgt>
<wgt id='1580'> +2.6520847e+11 </wgt>
<wgt id='1581'> +2.6393973e+11 </wgt>
<wgt id='1582'> +2.6363166e+11 </wgt>
<wgt id='1583'> +2.6413082e+11 </wgt>
<wgt id='1584'> +2.6514680e+11 </wgt>
<wgt id='1585'> +2.6475657e+11 </wgt>
<wgt id='1586'> +2.6354149e+11 </wgt>
<wgt id='1587'> +2.6379929e+11 </wgt>
<wgt id='1588'> +2.6329496e+11 </wgt>
<wgt id='1589'> +2.6432025e+11 </wgt>
<wgt id='1590'> +2.6438003e+11 </wgt>
<wgt id='1591'> +2.6463644e+11 </wgt>
<wgt id='1592'> +2.6353629e+11 </wgt>
<wgt id='1593'> +2.6370763e+11 </wgt>
<wgt id='1594'> +2.6537751e+11 </wgt>
<wgt id='1595'> +2.6234435e+11 </wgt>
<wgt id='1596'> +2.6813453e+11 </wgt>
<wgt id='1597'> +2.6629907e+11 </wgt>
<wgt id='1598'> +2.6652751e+11 </wgt>
<wgt id='1599'> +2.6183407e+11 </wgt>
<wgt id='1600'> +2.6898045e+11 </wgt>
<wgt id='1601'> +2.6671113e+11 </wgt>
<wgt id='1602'> +2.6462647e+11 </wgt>
<wgt id='1603'> +2.7490938e+11 </wgt>
<wgt id='1604'> +2.6463443e+11 </wgt>
</rwgt>
</event>
<event>
 9      1 +2.8343000e+11 1.40000100e+03 7.81738600e-03 7.88881100e-02
       21 -1    0    0  504  503 +0.0000000000e+00 +0.0000000000e+00 +7.6950287655e+02 7.6950287655e+02 0.0000000000e+00 0.0000e+00 -1.0000e+00
       21 -1    0    0  503  504 -0.0000000000e+00 -0.0000000000e+00 -6.3677604149e+02 6.3677604149e+02 0.0000000000e+00 0.0000e+00 -1.0000e+00
       45  2    1    2    0    0 +0.0000000000e+00 -5.6843418861e-14 +1.3272683506e+02 1.4062789180e+03 1.4000014223e+03 0.0000e+00 0.0000e+00
       25  2    3    3    0    0 -4.4757593270e+02 -3.4065437028e+02 -3.3739606407e+02 6.6770920284e+02 1.2501943843e+02 0.0000e+00 0.0000e+00
       35  2    3    3    0    0 +4.4757593270e+02 +3.4065437028e+02 +4.7012289912e+02 7.3856971520e+02 9.0000380040e+01 0.0000e+00 0.0000e+00
        5  1    5    5  501    0 +1.4035096472e+02 +6.3021075260e+01 +1.5264279274e+02 2.1676630087e+02 4.2140000000e+00 0.0000e+00 1.0000e+00
       -5  1    5    5    0  501 +3.0722496798e+02 +2.7763329502e+02 +3.1748010639e+02 5.2180341432e+02 4.2140000000e+00 0.0000e+00 1.0000e+00
        5  1    4    4  502    0 -4.5241307173e+02 -3.1988012012e+02 -3.2897142404e+02 6.4439183293e+02 4.2140000000e+00 0.0000e+00 1.0000e+00
       -5  1    4    4    0  502 +4.8371390324e+00 -2.0774250156e+01 -8.4246400303e+00 2.3317369903e+01 4.2140000000e+00 0.0000e+00 1.0000e+00
<mgrwt>
<rscale>  0 0.14000014E+04</rscale>
<asrwt>0</asrwt>
<pdfrwt beam="1">  1       21 0.11838506E+00 0.14000014E+04</pdfrwt>
<pdfrwt beam="2">  1       21 0.97965545E-01 0.14000014E+04</pdfrwt>
<totfact> 0.35613827E+02</totfact>
</mgrwt>
<rwgt>
<wgt id='1001'> +2.8343000e+11 </wgt>
<wgt id='1002'> +2.9275666e+11 </wgt>
<wgt id='1003'> +2.9275268e+11 </wgt>
<wgt id='1004'> +3.2889801e+11 </wgt>
<wgt id='1005'> +2.8343000e+11 </wgt>
<wgt id='1006'> +2.8343000e+11 </wgt>
<wgt id='1007'> +2.9275666e+11 </wgt>
<wgt id='1008'> +2.9275268e+11 </wgt>
<wgt id='1009'> +3.2889801e+11 </wgt>
<wgt id='1010'> +2.8343000e+11 </wgt>
<wgt id='1011'> +2.8343000e+11 </wgt>
<wgt id='1012'> +2.9275666e+11 </wgt>
<wgt id='1013'> +2.9275268e+11 </wgt>
<wgt id='1014'> +3.2889801e+11 </wgt>
<wgt id='1015'> +2.8343000e+11 </wgt>
<wgt id='1016'> +2.5467564e+11 </wgt>
<wgt id='1017'> +2.6256483e+11 </wgt>
<wgt id='1018'> +2.6256148e+11 </wgt>
<wgt id='1019'> +2.9275268e+11 </wgt>
<wgt id='1020'> +2.5467564e+11 </wgt>
<wgt id='1021'> +2.5467564e+11 </wgt>
<wgt id='1022'> +2.6256483e+11 </wgt>
<wgt id='1023'> +2.6256148e+11 </wgt>
<wgt id='1024'> +2.9275268e+11 </wgt>
<wgt id='1025'> +2.5467564e+11 </wgt>
<wgt id='1026'> +2.5467564e+11 </wgt>
<wgt id='1027'> +2.6256483e+11 </wgt>
<wgt id='1028'> +2.6256148e+11 </wgt>
<wgt id='1029'> +2.9275268e+11 </wgt>
<wgt id='1030'> +2.5467564e+11 </wgt>
<wgt id='1031'> +3.1769786e+11 </wgt>
<wgt id='1032'> +3.2890279e+11 </wgt>
<wgt id='1033'> +3.2889801e+11 </wgt>
<wgt id='1034'> +3.7248485e+11 </wgt>
<wgt id='1035'> +3.1769786e+11 </wgt>
<wgt id='1036'> +3.1769786e+11 </wgt>
<wgt id='1037'> +3.2890279e+11 </wgt>
<wgt id='1038'> +3.2889801e+11 </wgt>
<wgt id='1039'> +3.7248485e+11 </wgt>
<wgt id='1040'> +3.1769786e+11 </wgt>
<wgt id='1041'> +3.1769786e+11 </wgt>
<wgt id='1042'> +3.2890279e+11 </wgt>
<wgt id='1043'> +3.2889801e+11 </wgt>
<wgt id='1044'> +3.7248485e+11 </wgt>
<wgt id='1045'> +3.1769786e+11 </wgt>
<wgt id='1046'> +2.8343000e+11 </wgt>
<wgt id='1047'> +2.8343000e+11 </wgt>
<wgt id='1048'> +2.8343000e+11 </wgt>
<wgt id='1049'> +2.8228750e+11 </wgt>
<wgt id='1050'> +2.8305815e+11 </wgt>
<wgt id='1051'> +2.8373114e+11 </wgt>
<wgt id='1052'> +2.8421361e+11 </wgt>
<wgt id='1053'> +2.8188754e+11 </wgt>
<wgt id='1054'> +2.8387709e+11 </wgt>
<wgt id='1055'> +2.8225101e+11 </wgt>
<wgt id='1056'> +2.8182569e+11 </wgt>
<wgt id='1057'> +2.8419419e+11 </wgt>
<wgt id='1058'> +2.8304842e+11 </wgt>
<wgt id='1059'> +2.8540763e+11 </wgt>
<wgt id='1060'> +2.8366001e+11 </wgt>
<wgt id='1061'> +2.8419575e+11 </wgt>
<wgt id='1062'> +2.8401908e+11 </wgt>
<wgt id='1063'> +2.8368080e+11 </wgt>
<wgt id='1064'> +2.8467286e+11 </wgt>
<wgt id='1065'> +2.8486486e+11 </wgt>
<wgt id='1066'> +2.8195988e+11 </wgt>
<wgt id='1067'> +2.7975688e+11 </wgt>
<wgt id='1068'> +2.8379069e+11 </wgt>
<wgt id='1069'> +2.8276904e+11 </wgt>
<wgt id='1070'> +2.8344516e+11 </wgt>
<wgt id='1071'> +2.8484987e+11 </wgt>
<wgt id='1072'> +2.8114088e+11 </wgt>
<wgt id='1073'> +2.8410282e+11 </wgt>
<wgt id='1074'> +2.8307496e+11 </wgt>
<wgt id='1075'> +2.8441650e+11 </wgt>
<wgt id='1076'> +2.8316803e+11 </wgt>
<wgt id='1077'> +2.8292766e+11 </wgt>
<wgt id='1078'> +2.8410039e+11 </wgt>
<wgt id='1079'> +2.8180144e+11 </wgt>
<wgt id='1080'> +2.8278918e+11 </wgt>
<wgt id='1081'> +2.8301640e+11 </wgt>
<wgt id='1082'> +2.8204912e+11 </wgt>
<wgt id='1083'> +2.8399117e+11 </wgt>
<wgt id='1084'> +2.8406920e+11 </wgt>
<wgt id='1085'> +2.8285274e+11 </wgt>
<wgt id='1086'> +2.8281452e+11 </wgt>
<wgt id='1087'> +2.8308270e+11 </wgt>
<wgt id='1088'> +2.8294006e+11 </wgt>
<wgt id='1089'> +2.8279834e+11 </wgt>
<wgt id='1090'> +2.8413511e+11 </wgt>
<wgt id='1091'> +2.8349416e+11 </wgt>
<wgt id='1092'> +2.8369426e+11 </wgt>
<wgt id='1093'> +2.8332399e+11 </wgt>
<wgt id='1094'> +2.8290159e+11 </wgt>
<wgt id='1095'> +2.8354723e+11 </wgt>
<wgt id='1096'> +2.8337882e+11 </wgt>
<wgt id='1097'> +2.8303427e+11 </wgt>
<wgt id='1098'> +2.8307679e+11 </wgt>
<wgt id='1099'> +2.8322723e+11 </wgt>
<wgt id='1100'> +2.8401893e+11 </wgt>
<wgt id='1101'> +2.8340974e+11 </wgt>
<wgt id='1102'> +2.8328366e+11 </wgt>
<wgt id='1103'> +2.8310453e+11 </wgt>
<wgt id='1104'> +2.8310389e+11 </wgt>
<wgt id='1105'> +2.8353910e+11 </wgt>
<wgt id='1106'> +2.8376251e+11 </wgt>
<wgt id='1107'> +2.8333726e+11 </wgt>
<wgt id='1108'> +2.8333770e+11 </wgt>
<wgt id='1109'> +2.8323753e+11 </wgt>
<wgt id='1110'> +2.8376045e+11 </wgt>
<wgt id='1111'> +2.8356034e+11 </wgt>
<wgt id='1112'> +2.8339770e+11 </wgt>
<wgt id='1113'> +2.8373900e+11 </wgt>
<wgt id='1114'> +2.8311204e+11 </wgt>
<wgt id='1115'> +2.8325412e+11 </wgt>
<wgt id='1116'> +2.8373779e+11 </wgt>
<wgt id='1117'> +2.8337261e+11 </wgt>
<wgt id='1118'> +2.8353278e+11 </wgt>
<wgt id='1119'> +2.8325354e+11 </wgt>
<wgt id='1120'> +2.8328428e+11 </wgt>
<wgt id='1121'> +2.8349577e+11 </wgt>
<wgt id='1122'> +2.8322730e+11 </wgt>
<wgt id='1123'> +2.8337379e+11 </wgt>
<wgt id='1124'> +2.8334029e+11 </wgt>
<wgt id='1125'> +2.8358980e+11 </wgt>
<wgt id='1126'> +2.8353590e+11 </wgt>
<wgt id='1127'> +2.8332207e+11 </wgt>
<wgt id='1128'> +2.8347229e+11 </wgt>
<wgt id='1129'> +2.8338864e+11 </wgt>
<wgt id='1130'> +2.8346399e+11 </wgt>
<wgt id='1131'> +2.8369758e+11 </wgt>
<wgt id='1132'> +2.8335209e+11 </wgt>
<wgt id='1133'> +2.8350650e+11 </wgt>
<wgt id='1134'> +2.8341019e+11 </wgt>
<wgt id='1135'> +2.8346877e+11 </wgt>
<wgt id='1136'> +2.8339827e+11 </wgt>
<wgt id='1137'> +2.8328676e+11 </wgt>
<wgt id='1138'> +2.8354322e+11 </wgt>
<wgt id='1139'> +2.8346807e+11 </wgt>
<wgt id='1140'> +2.8364194e+11 </wgt>
<wgt id='1141'> +2.8330386e+11 </wgt>
<wgt id='1142'> +2.8350007e+11 </wgt>
<wgt id='1143'> +2.8359459e+11 </wgt>
<wgt id='1144'> +2.8334489e+11 </wgt>
<wgt id='1145'> +2.8355360e+11 </wgt>
<wgt id='1146'> +2.8341086e+11 </wgt>
<wgt id='1147'> +2.8347506e+11 </wgt>
<wgt id='1148'> +2.8343000e+11 </wgt>
<wgt id='1149'> +2.8343000e+11 </wgt>
<wgt id='1150'> +2.9133016e+11 </wgt>
<wgt id='1151'> +2.8114760e+11 </wgt>
<wgt id='1152'> +2.8527745e+11 </wgt>
<wgt id='1153'> +2.8768518e+11 </wgt>
<wgt id='1154'> +2.8736353e+11 </wgt>
<wgt id='1155'> +2.8846262e+11 </wgt>
<wgt id='1156'> +2.7655632e+11 </wgt>
<wgt id='1157'> +2.7660299e+11 </wgt>
<wgt id='1158'> +2.7763526e+11 </wgt>
<wgt id='1159'> +2.9628324e+11 </wgt>
<wgt id='1160'> +2.8164069e+11 </wgt>
<wgt id='1161'> +2.8553603e+11 </wgt>
<wgt id='1162'> +2.7645851e+11 </wgt>
<wgt id='1163'> +2.8683241e+11 </wgt>
<wgt id='1164'> +2.6763607e+11 </wgt>
<wgt id='1165'> +2.7930408e+11 </wgt>
<wgt id='1166'> +2.8498976e+11 </wgt>
<wgt id='1167'> +2.7989766e+11 </wgt>
<wgt id='1168'> +2.7651777e+11 </wgt>
<wgt id='1169'> +2.7595962e+11 </wgt>
<wgt id='1170'> +2.7613645e+11 </wgt>
<wgt id='1171'> +2.7345866e+11 </wgt>
<wgt id='1172'> +2.7751868e+11 </wgt>
<wgt id='1173'> +2.8794783e+11 </wgt>
<wgt id='1174'> +2.7962576e+11 </wgt>
<wgt id='1175'> +2.7527425e+11 </wgt>
<wgt id='1176'> +2.8638126e+11 </wgt>
<wgt id='1177'> +2.7923923e+11 </wgt>
<wgt id='1178'> +2.8314876e+11 </wgt>
<wgt id='1179'> +2.8028587e+11 </wgt>
<wgt id='1180'> +2.8393329e+11 </wgt>
<wgt id='1181'> +2.7654266e+11 </wgt>
<wgt id='1182'> +2.8160952e+11 </wgt>
<wgt id='1183'> +2.9566528e+11 </wgt>
<wgt id='1184'> +2.7643063e+11 </wgt>
<wgt id='1185'> +2.8085809e+11 </wgt>
<wgt id='1186'> +2.7176064e+11 </wgt>
<wgt id='1187'> +2.8570953e+11 </wgt>
<wgt id='1188'> +2.7734101e+11 </wgt>
<wgt id='1189'> +2.8555473e+11 </wgt>
<wgt id='1190'> +2.8419077e+11 </wgt>
<wgt id='1191'> +2.9513851e+11 </wgt>
<wgt id='1192'> +2.9180883e+11 </wgt>
<wgt id='1193'> +2.9532240e+11 </wgt>
<wgt id='1194'> +2.8458615e+11 </wgt>
<wgt id='1195'> +2.8376567e+11 </wgt>
<wgt id='1196'> +2.9235507e+11 </wgt>
<wgt id='1197'> +2.9402719e+11 </wgt>
<wgt id='1198'> +2.7545428e+11 </wgt>
<wgt id='1199'> +2.8207286e+11 </wgt>
<wgt id='1200'> +2.8235476e+11 </wgt>
<wgt id='1201'> +2.7934804e+11 </wgt>
<wgt id='1202'> +2.8864012e+11 </wgt>
<wgt id='1203'> +2.7765515e+11 </wgt>
<wgt id='1204'> +2.8826199e+11 </wgt>
<wgt id='1205'> +2.8508655e+11 </wgt>
<wgt id='1206'> +2.7652268e+11 </wgt>
<wgt id='1207'> +2.9311109e+11 </wgt>
<wgt id='1208'> +2.7282131e+11 </wgt>
<wgt id='1209'> +2.7870566e+11 </wgt>
<wgt id='1210'> +2.8038294e+11 </wgt>
<wgt id='1211'> +2.8573949e+11 </wgt>
<wgt id='1212'> +2.8366087e+11 </wgt>
<wgt id='1213'> +2.9338955e+11 </wgt>
<wgt id='1214'> +2.7572565e+11 </wgt>
<wgt id='1215'> +2.9195363e+11 </wgt>
<wgt id='1216'> +2.8601588e+11 </wgt>
<wgt id='1217'> +2.7593020e+11 </wgt>
<wgt id='1218'> +2.8477960e+11 </wgt>
<wgt id='1219'> +2.9440213e+11 </wgt>
<wgt id='1220'> +2.7710034e+11 </wgt>
<wgt id='1221'> +2.7505686e+11 </wgt>
<wgt id='1222'> +2.8037776e+11 </wgt>
<wgt id='1223'> +2.7260644e+11 </wgt>
<wgt id='1224'> +2.8352138e+11 </wgt>
<wgt id='1225'> +2.8811592e+11 </wgt>
<wgt id='1226'> +2.9062732e+11 </wgt>
<wgt id='1227'> +2.7311083e+11 </wgt>
<wgt id='1228'> +2.8138683e+11 </wgt>
<wgt id='1229'> +3.0282336e+11 </wgt>
<wgt id='1230'> +2.9412345e+11 </wgt>
<wgt id='1231'> +2.7930408e+11 </wgt>
<wgt id='1232'> +2.8910793e+11 </wgt>
<wgt id='1233'> +2.7813866e+11 </wgt>
<wgt id='1234'> +2.7635987e+11 </wgt>
<wgt id='1235'> +3.0299246e+11 </wgt>
<wgt id='1236'> +2.7660134e+11 </wgt>
<wgt id='1237'> +2.8982254e+11 </wgt>
<wgt id='1238'> +2.8959687e+11 </wgt>
<wgt id='1239'> +2.9200105e+11 </wgt>
<wgt id='1240'> +2.8545810e+11 </wgt>
<wgt id='1241'> +2.8202798e+11 </wgt>
<wgt id='1242'> +2.8074102e+11 </wgt>
<wgt id='1243'> +2.8893216e+11 </wgt>
<wgt id='1244'> +2.8125517e+11 </wgt>
<wgt id='1245'> +2.8179959e+11 </wgt>
<wgt id='1246'> +3.0721311e+11 </wgt>
<wgt id='1247'> +2.8369057e+11 </wgt>
<wgt id='1248'> +2.7534069e+11 </wgt>
<wgt id='1249'> +2.7763434e+11 </wgt>
<wgt id='1250'> +2.9213108e+11 </wgt>
<wgt id='1251'> +2.9874779e+11 </wgt>
<wgt id='1252'> +2.8720615e+11 </wgt>
<wgt id='1253'> +2.8530647e+11 </wgt>
<wgt id='1254'> +2.8866274e+11 </wgt>
<wgt id='1255'> +2.9806972e+11 </wgt>
<wgt id='1256'> +2.9541656e+11 </wgt>
<wgt id='1257'> +2.8574822e+11 </wgt>
<wgt id='1258'> +3.0019984e+11 </wgt>
<wgt id='1259'> +2.9478614e+11 </wgt>
<wgt id='1260'> +3.2550261e+11 </wgt>
<wgt id='1261'> +3.1378888e+11 </wgt>
<wgt id='1262'> +2.8968982e+11 </wgt>
<wgt id='1263'> +2.9675984e+11 </wgt>
<wgt id='1264'> +2.9859848e+11 </wgt>
<wgt id='1265'> +2.9869908e+11 </wgt>
<wgt id='1266'> +2.9442628e+11 </wgt>
<wgt id='1267'> +3.1571007e+11 </wgt>
<wgt id='1268'> +2.9419747e+11 </wgt>
<wgt id='1269'> +2.8722324e+11 </wgt>
<wgt id='1270'> +2.9148722e+11 </wgt>
<wgt id='1271'> +2.7933297e+11 </wgt>
<wgt id='1272'> +2.9335633e+11 </wgt>
<wgt id='1273'> +2.9190435e+11 </wgt>
<wgt id='1274'> +2.8764530e+11 </wgt>
<wgt id='1275'> +2.9851134e+11 </wgt>
<wgt id='1276'> +2.9554323e+11 </wgt>
<wgt id='1277'> +2.9091245e+11 </wgt>
<wgt id='1278'> +2.8668176e+11 </wgt>
<wgt id='1279'> +2.8121421e+11 </wgt>
<wgt id='1280'> +2.9380002e+11 </wgt>
<wgt id='1281'> +2.8583748e+11 </wgt>
<wgt id='1282'> +2.9663580e+11 </wgt>
<wgt id='1283'> +2.9629052e+11 </wgt>
<wgt id='1284'> +3.1478364e+11 </wgt>
<wgt id='1285'> +3.0822161e+11 </wgt>
<wgt id='1286'> +3.2870700e+11 </wgt>
<wgt id='1287'> +3.0329317e+11 </wgt>
<wgt id='1288'> +3.2366686e+11 </wgt>
<wgt id='1289'> +3.1300945e+11 </wgt>
<wgt id='1290'> +3.1142880e+11 </wgt>
<wgt id='1291'> +2.7793404e+11 </wgt>
<wgt id='1292'> +2.9745945e+11 </wgt>
<wgt id='1293'> +3.0020446e+11 </wgt>
<wgt id='1294'> +3.1444270e+11 </wgt>
<wgt id='1295'> +2.9832928e+11 </wgt>
<wgt id='1296'> +3.1545262e+11 </wgt>
<wgt id='1297'> +2.9551569e+11 </wgt>
<wgt id='1298'> +2.8777476e+11 </wgt>
<wgt id='1299'> +2.9862242e+11 </wgt>
<wgt id='1300'> +2.8804880e+11 </wgt>
<wgt id='1301'> +2.8092481e+11 </wgt>
<wgt id='1302'> +2.7583770e+11 </wgt>
<wgt id='1303'> +2.9842907e+11 </wgt>
<wgt id='1304'> +3.0613538e+11 </wgt>
<wgt id='1305'> +2.9834473e+11 </wgt>
<wgt id='1306'> +3.0522061e+11 </wgt>
<wgt id='1307'> +3.0364049e+11 </wgt>
<wgt id='1308'> +3.2535977e+11 </wgt>
<wgt id='1309'> +2.9584390e+11 </wgt>
<wgt id='1310'> +3.0221221e+11 </wgt>
<wgt id='1311'> +3.0795039e+11 </wgt>
<wgt id='1312'> +2.9917391e+11 </wgt>
<wgt id='1313'> +2.9690899e+11 </wgt>
<wgt id='1314'> +3.0415104e+11 </wgt>
<wgt id='1315'> +2.8493055e+11 </wgt>
<wgt id='1316'> +2.9854105e+11 </wgt>
<wgt id='1317'> +3.0136371e+11 </wgt>
<wgt id='1318'> +2.8642891e+11 </wgt>
<wgt id='1319'> +3.0767835e+11 </wgt>
<wgt id='1320'> +3.0907945e+11 </wgt>
<wgt id='1321'> +2.9375674e+11 </wgt>
<wgt id='1322'> +2.9783431e+11 </wgt>
<wgt id='1323'> +2.9861130e+11 </wgt>
<wgt id='1324'> +3.0128624e+11 </wgt>
<wgt id='1325'> +3.1093644e+11 </wgt>
<wgt id='1326'> +3.0288453e+11 </wgt>
<wgt id='1327'> +2.9356981e+11 </wgt>
<wgt id='1328'> +3.0258864e+11 </wgt>
<wgt id='1329'> +2.9776350e+11 </wgt>
<wgt id='1330'> +2.9071014e+11 </wgt>
<wgt id='1331'> +3.1924568e+11 </wgt>
<wgt id='1332'> +2.8607074e+11 </wgt>
<wgt id='1333'> +3.0056273e+11 </wgt>
<wgt id='1334'> +3.1388429e+11 </wgt>
<wgt id='1335'> +2.9253122e+11 </wgt>
<wgt id='1336'> +3.0234562e+11 </wgt>
<wgt id='1337'> +3.0848066e+11 </wgt>
<wgt id='1338'> +2.8983380e+11 </wgt>
<wgt id='1339'> +3.2032149e+11 </wgt>
<wgt id='1340'> +3.0164844e+11 </wgt>
<wgt id='1341'> +3.0489266e+11 </wgt>
<wgt id='1342'> +3.1556303e+11 </wgt>
<wgt id='1343'> +3.1027229e+11 </wgt>
<wgt id='1344'> +3.0346520e+11 </wgt>
<wgt id='1345'> +2.8000948e+11 </wgt>
<wgt id='1346'> +2.9951447e+11 </wgt>
<wgt id='1347'> +2.8682043e+11 </wgt>
<wgt id='1348'> +2.8803164e+11 </wgt>
<wgt id='1349'> +2.8982465e+11 </wgt>
<wgt id='1350'> +3.0047795e+11 </wgt>
<wgt id='1351'> +2.9676662e+11 </wgt>
<wgt id='1352'> +3.0049040e+11 </wgt>
<wgt id='1353'> +2.9717126e+11 </wgt>
<wgt id='1354'> +3.0691516e+11 </wgt>
<wgt id='1355'> +2.7547005e+11 </wgt>
<wgt id='1356'> +2.7822338e+11 </wgt>
<wgt id='1357'> +2.7635311e+11 </wgt>
<wgt id='1358'> +2.7288640e+11 </wgt>
<wgt id='1359'> +2.7622894e+11 </wgt>
<wgt id='1360'> +2.6869292e+11 </wgt>
<wgt id='1361'> +2.7550875e+11 </wgt>
<wgt id='1362'> +2.7732461e+11 </wgt>
<wgt id='1363'> +2.6934170e+11 </wgt>
<wgt id='1364'> +2.8172746e+11 </wgt>
<wgt id='1365'> +2.7314160e+11 </wgt>
<wgt id='1366'> +2.7559523e+11 </wgt>
<wgt id='1367'> +2.7632235e+11 </wgt>
<wgt id='1368'> +2.7550872e+11 </wgt>
<wgt id='1369'> +2.7976054e+11 </wgt>
<wgt id='1370'> +2.7359931e+11 </wgt>
<wgt id='1371'> +2.7316301e+11 </wgt>
<wgt id='1372'> +2.7997860e+11 </wgt>
<wgt id='1373'> +2.7911355e+11 </wgt>
<wgt id='1374'> +2.6737063e+11 </wgt>
<wgt id='1375'> +2.7436888e+11 </wgt>
<wgt id='1376'> +2.7636237e+11 </wgt>
<wgt id='1377'> +2.7539490e+11 </wgt>
<wgt id='1378'> +2.7127679e+11 </wgt>
<wgt id='1379'> +2.7393832e+11 </wgt>
<wgt id='1380'> +2.7388728e+11 </wgt>
<wgt id='1381'> +2.8078606e+11 </wgt>
<wgt id='1382'> +2.7510029e+11 </wgt>
<wgt id='1383'> +2.7543201e+11 </wgt>
<wgt id='1384'> +2.7383058e+11 </wgt>
<wgt id='1385'> +2.7400685e+11 </wgt>
<wgt id='1386'> +2.7742253e+11 </wgt>
<wgt id='1387'> +2.7447071e+11 </wgt>
<wgt id='1388'> +2.7176399e+11 </wgt>
<wgt id='1389'> +2.7377687e+11 </wgt>
<wgt id='1390'> +2.7441740e+11 </wgt>
<wgt id='1391'> +2.7320886e+11 </wgt>
<wgt id='1392'> +2.7331251e+11 </wgt>
<wgt id='1393'> +2.7345650e+11 </wgt>
<wgt id='1394'> +2.7317289e+11 </wgt>
<wgt id='1395'> +2.7121835e+11 </wgt>
<wgt id='1396'> +2.7650923e+11 </wgt>
<wgt id='1397'> +2.7607455e+11 </wgt>
<wgt id='1398'> +2.7609131e+11 </wgt>
<wgt id='1399'> +2.7108318e+11 </wgt>
<wgt id='1400'> +2.7252869e+11 </wgt>
<wgt id='1401'> +2.7398144e+11 </wgt>
<wgt id='1402'> +2.7872373e+11 </wgt>
<wgt id='1403'> +2.7857266e+11 </wgt>
<wgt id='1404'> +2.7327392e+11 </wgt>
<wgt id='1405'> +2.8158257e+11 </wgt>
<wgt id='1406'> +2.7521638e+11 </wgt>
<wgt id='1407'> +2.7617373e+11 </wgt>
<wgt id='1408'> +2.7864206e+11 </wgt>
<wgt id='1409'> +2.7338307e+11 </wgt>
<wgt id='1410'> +2.7315955e+11 </wgt>
<wgt id='1411'> +2.7515289e+11 </wgt>
<wgt id='1412'> +2.7435298e+11 </wgt>
<wgt id='1413'> +2.7238176e+11 </wgt>
<wgt id='1414'> +2.7718264e+11 </wgt>
<wgt id='1415'> +2.8126666e+11 </wgt>
<wgt id='1416'> +2.7861335e+11 </wgt>
<wgt id='1417'> +2.6876834e+11 </wgt>
<wgt id='1418'> +2.7713868e+11 </wgt>
<wgt id='1419'> +2.7900753e+11 </wgt>
<wgt id='1420'> +2.7470536e+11 </wgt>
<wgt id='1421'> +2.8152321e+11 </wgt>
<wgt id='1422'> +2.6789030e+11 </wgt>
<wgt id='1423'> +2.8071718e+11 </wgt>
<wgt id='1424'> +2.7648940e+11 </wgt>
<wgt id='1425'> +2.7568343e+11 </wgt>
<wgt id='1426'> +2.7902298e+11 </wgt>
<wgt id='1427'> +2.7543332e+11 </wgt>
<wgt id='1428'> +2.7532332e+11 </wgt>
<wgt id='1429'> +2.7131931e+11 </wgt>
<wgt id='1430'> +2.7072844e+11 </wgt>
<wgt id='1431'> +2.7077023e+11 </wgt>
<wgt id='1432'> +2.7740432e+11 </wgt>
<wgt id='1433'> +2.7611914e+11 </wgt>
<wgt id='1434'> +2.8215928e+11 </wgt>
<wgt id='1435'> +2.7460479e+11 </wgt>
<wgt id='1436'> +2.7963266e+11 </wgt>
<wgt id='1437'> +2.7817044e+11 </wgt>
<wgt id='1438'> +2.7350564e+11 </wgt>
<wgt id='1439'> +2.7618073e+11 </wgt>
<wgt id='1440'> +2.8007186e+11 </wgt>
<wgt id='1441'> +2.7538455e+11 </wgt>
<wgt id='1442'> +2.8312268e+11 </wgt>
<wgt id='1443'> +2.7364595e+11 </wgt>
<wgt id='1444'> +2.7377832e+11 </wgt>
<wgt id='1445'> +2.7844205e+11 </wgt>
<wgt id='1446'> +2.7769312e+11 </wgt>
<wgt id='1447'> +2.7146808e+11 </wgt>
<wgt id='1448'> +2.7782772e+11 </wgt>
<wgt id='1449'> +2.7681507e+11 </wgt>
<wgt id='1450'> +2.7358719e+11 </wgt>
<wgt id='1451'> +2.7671782e+11 </wgt>
<wgt id='1452'> +2.7865930e+11 </wgt>
<wgt id='1453'> +2.8051793e+11 </wgt>
<wgt id='1454'> +2.6884682e+11 </wgt>
<wgt id='1455'> +2.7471115e+11 </wgt>
<wgt id='1456'> +2.7470754e+11 </wgt>
<wgt id='1457'> +2.7424692e+11 </wgt>
<wgt id='1458'> +2.7735384e+11 </wgt>
<wgt id='1459'> +3.0478474e+11 </wgt>
<wgt id='1460'> +3.0011194e+11 </wgt>
<wgt id='1461'> +3.4718046e+11 </wgt>
<wgt id='1462'> +2.9959625e+11 </wgt>
<wgt id='1463'> +2.9984632e+11 </wgt>
<wgt id='1464'> +2.9927554e+11 </wgt>
<wgt id='1465'> +2.9965763e+11 </wgt>
<wgt id='1466'> +2.9954018e+11 </wgt>
<wgt id='1467'> +2.9975958e+11 </wgt>
<wgt id='1468'> +2.9932829e+11 </wgt>
<wgt id='1469'> +2.9914562e+11 </wgt>
<wgt id='1470'> +2.9996226e+11 </wgt>
<wgt id='1471'> +3.0007496e+11 </wgt>
<wgt id='1472'> +2.9910320e+11 </wgt>
<wgt id='1473'> +3.0074647e+11 </wgt>
<wgt id='1474'> +2.9849148e+11 </wgt>
<wgt id='1475'> +3.0069412e+11 </wgt>
<wgt id='1476'> +2.9881787e+11 </wgt>
<wgt id='1477'> +2.9902261e+11 </wgt>
<wgt id='1478'> +3.0093622e+11 </wgt>
<wgt id='1479'> +2.9901917e+11 </wgt>
<wgt id='1480'> +2.9999906e+11 </wgt>
<wgt id='1481'> +2.9917610e+11 </wgt>
<wgt id='1482'> +3.0016280e+11 </wgt>
<wgt id='1483'> +2.9969451e+11 </wgt>
<wgt id='1484'> +2.9945668e+11 </wgt>
<wgt id='1485'> +2.9979731e+11 </wgt>
<wgt id='1486'> +2.9911206e+11 </wgt>
<wgt id='1487'> +2.9984485e+11 </wgt>
<wgt id='1488'> +2.9928354e+11 </wgt>
<wgt id='1489'> +2.9924511e+11 </wgt>
<wgt id='1490'> +3.0054816e+11 </wgt>
<wgt id='1491'> +3.0451556e+11 </wgt>
<wgt id='1492'> +2.9685045e+11 </wgt>
<wgt id='1493'> +2.9610009e+11 </wgt>
<wgt id='1494'> +3.1055307e+11 </wgt>
<wgt id='1495'> +2.9896399e+11 </wgt>
<wgt id='1496'> +3.0027439e+11 </wgt>
<wgt id='1497'> +2.9979512e+11 </wgt>
<wgt id='1498'> +2.9932445e+11 </wgt>
<wgt id='1499'> +3.0146188e+11 </wgt>
<wgt id='1500'> +2.9857558e+11 </wgt>
<wgt id='1501'> +3.0006224e+11 </wgt>
<wgt id='1502'> +2.9836112e+11 </wgt>
<wgt id='1503'> +2.9647368e+11 </wgt>
<wgt id='1504'> +3.0290643e+11 </wgt>
<wgt id='1505'> +3.0062758e+11 </wgt>
<wgt id='1506'> +2.9860608e+11 </wgt>
<wgt id='1507'> +3.0087559e+11 </wgt>
<wgt id='1508'> +2.9891792e+11 </wgt>
<wgt id='1509'> +3.0016726e+11 </wgt>
<wgt id='1510'> +2.9714584e+11 </wgt>
<wgt id='1511'> +3.0070221e+11 </wgt>
<wgt id='1512'> +2.9928497e+11 </wgt>
<wgt id='1513'> +2.9951781e+11 </wgt>
<wgt id='1514'> +2.9966698e+11 </wgt>
<wgt id='1515'> +3.0198747e+11 </wgt>
<wgt id='1516'> +3.0006716e+11 </wgt>
<wgt id='1517'> +2.9922581e+11 </wgt>
<wgt id='1518'> +2.9989727e+11 </wgt>
<wgt id='1519'> +2.9797537e+11 </wgt>
<wgt id='1520'> +3.0074999e+11 </wgt>
<wgt id='1521'> +2.9883700e+11 </wgt>
<wgt id='1522'> +3.0005272e+11 </wgt>
<wgt id='1523'> +3.0096531e+11 </wgt>
<wgt id='1524'> +3.0094592e+11 </wgt>
<wgt id='1525'> +3.0084256e+11 </wgt>
<wgt id='1526'> +3.0036477e+11 </wgt>
<wgt id='1527'> +2.9959625e+11 </wgt>
<wgt id='1528'> +2.9943043e+11 </wgt>
<wgt id='1529'> +2.9923160e+11 </wgt>
<wgt id='1530'> +2.9547010e+11 </wgt>
<wgt id='1531'> +2.9625123e+11 </wgt>
<wgt id='1532'> +2.9386248e+11 </wgt>
<wgt id='1533'> +2.9185414e+11 </wgt>
<wgt id='1534'> +2.9463740e+11 </wgt>
<wgt id='1535'> +2.9872344e+11 </wgt>
<wgt id='1536'> +2.9320085e+11 </wgt>
<wgt id='1537'> +2.9614268e+11 </wgt>
<wgt id='1538'> +2.9308740e+11 </wgt>
<wgt id='1539'> +3.0247593e+11 </wgt>
<wgt id='1540'> +2.9539239e+11 </wgt>
<wgt id='1541'> +2.9638075e+11 </wgt>
<wgt id='1542'> +2.9615721e+11 </wgt>
<wgt id='1543'> +2.9728749e+11 </wgt>
<wgt id='1544'> +2.9434945e+11 </wgt>
<wgt id='1545'> +2.9429393e+11 </wgt>
<wgt id='1546'> +2.9235283e+11 </wgt>
<wgt id='1547'> +2.9854503e+11 </wgt>
<wgt id='1548'> +2.9424500e+11 </wgt>
<wgt id='1549'> +2.9291121e+11 </wgt>
<wgt id='1550'> +2.9685856e+11 </wgt>
<wgt id='1551'> +2.9689480e+11 </wgt>
<wgt id='1552'> +2.9557250e+11 </wgt>
<wgt id='1553'> +2.9805882e+11 </wgt>
<wgt id='1554'> +2.9609251e+11 </wgt>
<wgt id='1555'> +2.9685173e+11 </wgt>
<wgt id='1556'> +2.9861208e+11 </wgt>
<wgt id='1557'> +2.9551887e+11 </wgt>
<wgt id='1558'> +2.9623040e+11 </wgt>
<wgt id='1559'> +2.9422829e+11 </wgt>
<wgt id='1560'> +2.9503479e+11 </wgt>
<wgt id='1561'> +2.9231329e+11 </wgt>
<wgt id='1562'> +2.9481528e+11 </wgt>
<wgt id='1563'> +2.9617655e+11 </wgt>
<wgt id='1564'> +2.9586635e+11 </wgt>
<wgt id='1565'> +2.9843962e+11 </wgt>
<wgt id='1566'> +2.9654112e+11 </wgt>
<wgt id='1567'> +2.9981309e+11 </wgt>
<wgt id='1568'> +2.9619499e+11 </wgt>
<wgt id='1569'> +2.9588925e+11 </wgt>
<wgt id='1570'> +2.9800317e+11 </wgt>
<wgt id='1571'> +2.9604145e+11 </wgt>
<wgt id='1572'> +2.9795910e+11 </wgt>
<wgt id='1573'> +2.9905000e+11 </wgt>
<wgt id='1574'> +2.6545819e+11 </wgt>
<wgt id='1575'> +2.6553056e+11 </wgt>
<wgt id='1576'> +2.6539044e+11 </wgt>
<wgt id='1577'> +2.6547648e+11 </wgt>
<wgt id='1578'> +2.6606901e+11 </wgt>
<wgt id='1579'> +2.6632524e+11 </wgt>
<wgt id='1580'> +2.6609771e+11 </wgt>
<wgt id='1581'> +2.6482854e+11 </wgt>
<wgt id='1582'> +2.6452033e+11 </wgt>
<wgt id='1583'> +2.6501703e+11 </wgt>
<wgt id='1584'> +2.6603770e+11 </wgt>
<wgt id='1585'> +2.6564633e+11 </wgt>
<wgt id='1586'> +2.6443062e+11 </wgt>
<wgt id='1587'> +2.6468865e+11 </wgt>
<wgt id='1588'> +2.6418392e+11 </wgt>
<wgt id='1589'> +2.6520804e+11 </wgt>
<wgt id='1590'> +2.6526972e+11 </wgt>
<wgt id='1591'> +2.6552589e+11 </wgt>
<wgt id='1592'> +2.6442437e+11 </wgt>
<wgt id='1593'> +2.6459444e+11 </wgt>
<wgt id='1594'> +2.6626883e+11 </wgt>
<wgt id='1595'> +2.6322882e+11 </wgt>
<wgt id='1596'> +2.6903113e+11 </wgt>
<wgt id='1597'> +2.6719102e+11 </wgt>
<wgt id='1598'> +2.6741839e+11 </wgt>
<wgt id='1599'> +2.6271885e+11 </wgt>
<wgt id='1600'> +2.6987511e+11 </wgt>
<wgt id='1601'> +2.6760082e+11 </wgt>
<wgt id='1602'> +2.6551580e+11 </wgt>
<wgt id='1603'> +2.7584552e+11 </wgt>
<wgt id='1604'> +2.6550626e+11 </wgt>
</rwgt>
</event>
<event>
 9      1 +2.8343000e+11 1.40000000e+03 7.81738600e-03 7.88881100e-02
       21 -1    0    0  504  503 +0.0000000000e+00 +0.0000000000e+00 +4.4523231634e+02 4.4523231634e+02 0.0000000000e+00 0.0000e+00 1.0000e+00
       21 -1    0    0  503  504 -0.0000000000e+00 -0.0000000000e+00 -1.1005497603e+03 1.1005497603e+03 0.0000000000e+00 0.0000e+00 1.0000e+00
       45  2    1    2    0    0 +0.0000000000e+00 +7.1054273576e-15 -6.5531744400e+02 1.5457820767e+03 1.4000004558e+03 0.0000e+00 0.0000e+00
       25  2    3    3    0    0 +5.3985206363e+02 +9.1596077199e+00 +1.4806292043e+02 5.7364813319e+02 1.2500161314e+02 0.0000e+00 0.0000e+00
       35  2    3    3    0    0 -5.3985206363e+02 -9.1596077199e+00 -8.0338036442e+02 9.7213394349e+02 9.0001361797e+01 0.0000e+00 0.0000e+00
        5  1    5    5  501    0 -4.8628127313e+02 -8.9288214185e-01 -6.6816361684e+02 8.2639618254e+02 4.2140000000e+00 0.0000e+00 1.0000e+00
       -5  1    5    5    0  501 -5.3570790497e+01 -8.2667255781e+00 -1.3521674758e+02 1.4573776095e+02 4.2140000000e+00 0.0000e+00 1.0000e+00
        5  1    4    4  502    0 +3.8705901750e+02 -3.5507732360e+01 +1.4346636713e+02 4.1433783122e+02 4.2140000000e+00 0.0000e+00 1.0000e+00
       -5  1    4    4    0  502 +1.5279304613e+02 +4.4667340080e+01 +4.5965532947e+00 1.5931030197e+02 4.2140000000e+00 0.0000e+00 1.0000e+00
<mgrwt>
<rscale>  0 0.14000005E+04</rscale>
<asrwt>0</asrwt>
<pdfrwt beam="1">  1       21 0.68497281E-01 0.14000005E+04</pdfrwt>
<pdfrwt beam="2">  1       21 0.16931535E+00 0.14000005E+04</pdfrwt>
<totfact> 0.30042305E+02</totfact>
</mgrwt>
<rwgt>
<wgt id='1001'> +2.8343000e+11 </wgt>
<wgt id='1002'> +2.9536689e+11 </wgt>
<wgt id='1003'> +2.9535987e+11 </wgt>
<wgt id='1004'> +3.3277982e+11 </wgt>
<wgt id='1005'> +2.8343000e+11 </wgt>
<wgt id='1006'> +2.8343000e+11 </wgt>
<wgt id='1007'> +2.9536689e+11 </wgt>
<wgt id='1008'> +2.9535987e+11 </wgt>
<wgt id='1009'> +3.3277982e+11 </wgt>
<wgt id='1010'> +2.8343000e+11 </wgt>
<wgt id='1011'> +2.8343000e+11 </wgt>
<wgt id='1012'> +2.9536689e+11 </wgt>
<wgt id='1013'> +2.9535987e+11 </wgt>
<wgt id='1014'> +3.3277982e+11 </wgt>
<wgt id='1015'> +2.8343000e+11 </wgt>
<wgt id='1016'> +2.5413855e+11 </wgt>
<wgt id='1017'> +2.6419874e+11 </wgt>
<wgt id='1018'> +2.6419284e+11 </wgt>
<wgt id='1019'> +2.9535987e+11 </wgt>
<wgt id='1020'> +2.5413855e+11 </wgt>
<wgt id='1021'> +2.5413855e+11 </wgt>
<wgt id='1022'> +2.6419874e+11 </wgt>
<wgt id='1023'> +2.6419284e+11 </wgt>
<wgt id='1024'> +2.9535987e+11 </wgt>
<wgt id='1025'> +2.5413855e+11 </wgt>
<wgt id='1026'> +2.5413855e+11 </wgt>
<wgt id='1027'> +2.6419874e+11 </wgt>
<wgt id='1028'> +2.6419284e+11 </wgt>
<wgt id='1029'> +2.9535987e+11 </wgt>
<wgt id='1030'> +2.5413855e+11 </wgt>
<wgt id='1031'> +3.1841750e+11 </wgt>
<wgt id='1032'> +3.3278827e+11 </wgt>
<wgt id='1033'> +3.3277982e+11 </wgt>
<wgt id='1034'> +3.7806710e+11 </wgt>
<wgt id='1035'> +3.1841750e+11 </wgt>
<wgt id='1036'> +3.1841750e+11 </wgt>
<wgt id='1037'> +3.3278827e+11 </wgt>
<wgt id='1038'> +3.3277982e+11 </wgt>
<wgt id='1039'> +3.7806710e+11 </wgt>
<wgt id='1040'> +3.1841750e+11 </wgt>
<wgt id='1041'> +3.1841750e+11 </wgt>
<wgt id='1042'> +3.3278827e+11 </wgt>
<wgt id='1043'> +3.3277982e+11 </wgt>
<wgt id='1044'> +3.7806710e+11 </wgt>
<wgt id='1045'> +3.1841750e+11 </wgt>
<wgt id='1046'> +2.8343000e+11 </wgt>
<wgt id='1047'> +2.8343000e+11 </wgt>
<wgt id='1048'> +2.8343000e+11 </wgt>
<wgt id='1049'> +2.8276965e+11 </wgt>
<wgt id='1050'> +2.8324338e+11 </wgt>
<wgt id='1051'> +2.8328313e+11 </wgt>
<wgt id='1052'> +2.8434878e+11 </wgt>
<wgt id='1053'> +2.8170091e+11 </wgt>
<wgt id='1054'> +2.8371951e+11 </wgt>
<wgt id='1055'> +2.8223069e+11 </wgt>
<wgt id='1056'> +2.8210861e+11 </wgt>
<wgt id='1057'> +2.8359440e+11 </wgt>
<wgt id='1058'> +2.8284784e+11 </wgt>
<wgt id='1059'> +2.8521817e+11 </wgt>
<wgt id='1060'> +2.8379063e+11 </wgt>
<wgt id='1061'> +2.8396631e+11 </wgt>
<wgt id='1062'> +2.8425192e+11 </wgt>
<wgt id='1063'> +2.8441441e+11 </wgt>
<wgt id='1064'> +2.8410756e+11 </wgt>
<wgt id='1065'> +2.8467096e+11 </wgt>
<wgt id='1066'> +2.8131874e+11 </wgt>
<wgt id='1067'> +2.8145944e+11 </wgt>
<wgt id='1068'> +2.8332476e+11 </wgt>
<wgt id='1069'> +2.8257773e+11 </wgt>
<wgt id='1070'> +2.8389382e+11 </wgt>
<wgt id='1071'> +2.8332228e+11 </wgt>
<wgt id='1072'> +2.8213219e+11 </wgt>
<wgt id='1073'> +2.8341774e+11 </wgt>
<wgt id='1074'> +2.8323610e+11 </wgt>
<wgt id='1075'> +2.8445415e+11 </wgt>
<wgt id='1076'> +2.8163885e+11 </wgt>
<wgt id='1077'> +2.8210355e+11 </wgt>
<wgt id='1078'> +2.8410585e+11 </wgt>
<wgt id='1079'> +2.8217221e+11 </wgt>
<wgt id='1080'> +2.8317904e+11 </wgt>
<wgt id='1081'> +2.8293953e+11 </wgt>
<wgt id='1082'> +2.8220060e+11 </wgt>
<wgt id='1083'> +2.8389759e+11 </wgt>
<wgt id='1084'> +2.8391482e+11 </wgt>
<wgt id='1085'> +2.8274129e+11 </wgt>
<wgt id='1086'> +2.8313527e+11 </wgt>
<wgt id='1087'> +2.8316342e+11 </wgt>
<wgt id='1088'> +2.8294558e+11 </wgt>
<wgt id='1089'> +2.8262132e+11 </wgt>
<wgt id='1090'> +2.8410277e+11 </wgt>
<wgt id='1091'> +2.8351998e+11 </wgt>
<wgt id='1092'> +2.8376085e+11 </wgt>
<wgt id='1093'> +2.8337922e+11 </wgt>
<wgt id='1094'> +2.8268794e+11 </wgt>
<wgt id='1095'> +2.8362959e+11 </wgt>
<wgt id='1096'> +2.8341540e+11 </wgt>
<wgt id='1097'> +2.8297938e+11 </wgt>
<wgt id='1098'> +2.8311100e+11 </wgt>
<wgt id='1099'> +2.8317432e+11 </wgt>
<wgt id='1100'> +2.8405057e+11 </wgt>
<wgt id='1101'> +2.8347496e+11 </wgt>
<wgt id='1102'> +2.8332102e+11 </wgt>
<wgt id='1103'> +2.8294072e+11 </wgt>
<wgt id='1104'> +2.8318813e+11 </wgt>
<wgt id='1105'> +2.8352859e+11 </wgt>
<wgt id='1106'> +2.8376277e+11 </wgt>
<wgt id='1107'> +2.8347486e+11 </wgt>
<wgt id='1108'> +2.8326500e+11 </wgt>
<wgt id='1109'> +2.8322579e+11 </wgt>
<wgt id='1110'> +2.8372312e+11 </wgt>
<wgt id='1111'> +2.8358351e+11 </wgt>
<wgt id='1112'> +2.8338576e+11 </wgt>
<wgt id='1113'> +2.8376346e+11 </wgt>
<wgt id='1114'> +2.8312461e+11 </wgt>
<wgt id='1115'> +2.8312912e+11 </wgt>
<wgt id='1116'> +2.8390569e+11 </wgt>
<wgt id='1117'> +2.8336079e+11 </wgt>
<wgt id='1118'> +2.8361679e+11 </wgt>
<wgt id='1119'> +2.8314401e+11 </wgt>
<wgt id='1120'> +2.8320214e+11 </wgt>
<wgt id='1121'> +2.8351425e+11 </wgt>
<wgt id='1122'> +2.8317012e+11 </wgt>
<wgt id='1123'> +2.8337546e+11 </wgt>
<wgt id='1124'> +2.8340678e+11 </wgt>
<wgt id='1125'> +2.8360914e+11 </wgt>
<wgt id='1126'> +2.8354234e+11 </wgt>
<wgt id='1127'> +2.8329587e+11 </wgt>
<wgt id='1128'> +2.8342492e+11 </wgt>
<wgt id='1129'> +2.8333272e+11 </wgt>
<wgt id='1130'> +2.8346263e+11 </wgt>
<wgt id='1131'> +2.8381874e+11 </wgt>
<wgt id='1132'> +2.8334654e+11 </wgt>
<wgt id='1133'> +2.8354084e+11 </wgt>
<wgt id='1134'> +2.8342194e+11 </wgt>
<wgt id='1135'> +2.8346678e+11 </wgt>
<wgt id='1136'> +2.8336195e+11 </wgt>
<wgt id='1137'> +2.8324938e+11 </wgt>
<wgt id='1138'> +2.8356293e+11 </wgt>
<wgt id='1139'> +2.8349109e+11 </wgt>
<wgt id='1140'> +2.8366522e+11 </wgt>
<wgt id='1141'> +2.8324381e+11 </wgt>
<wgt id='1142'> +2.8348719e+11 </wgt>
<wgt id='1143'> +2.8360614e+11 </wgt>
<wgt id='1144'> +2.8333078e+11 </wgt>
<wgt id='1145'> +2.8356965e+11 </wgt>
<wgt id='1146'> +2.8345543e+11 </wgt>
<wgt id='1147'> +2.8348475e+11 </wgt>
<wgt id='1148'> +2.8343000e+11 </wgt>
<wgt id='1149'> +2.8343000e+11 </wgt>
<wgt id='1150'> +2.9691049e+11 </wgt>
<wgt id='1151'> +2.7787936e+11 </wgt>
<wgt id='1152'> +2.7810363e+11 </wgt>
<wgt id='1153'> +2.8614789e+11 </wgt>
<wgt id='1154'> +2.8305656e+11 </wgt>
<wgt id='1155'> +2.9232933e+11 </wgt>
<wgt id='1156'> +2.7752243e+11 </wgt>
<wgt id='1157'> +2.7457900e+11 </wgt>
<wgt id='1158'> +2.7708387e+11 </wgt>
<wgt id='1159'> +2.9994113e+11 </wgt>
<wgt id='1160'> +2.8472396e+11 </wgt>
<wgt id='1161'> +2.8715656e+11 </wgt>
<wgt id='1162'> +2.8383052e+11 </wgt>
<wgt id='1163'> +2.8626302e+11 </wgt>
<wgt id='1164'> +2.7239185e+11 </wgt>
<wgt id='1165'> +2.7783304e+11 </wgt>
<wgt id='1166'> +2.8329239e+11 </wgt>
<wgt id='1167'> +2.7811874e+11 </wgt>
<wgt id='1168'> +2.7471175e+11 </wgt>
<wgt id='1169'> +2.7576886e+11 </wgt>
<wgt id='1170'> +2.8329164e+11 </wgt>
<wgt id='1171'> +2.7290937e+11 </wgt>
<wgt id='1172'> +2.7516749e+11 </wgt>
<wgt id='1173'> +2.8564999e+11 </wgt>
<wgt id='1174'> +2.7715891e+11 </wgt>
<wgt id='1175'> +2.7785264e+11 </wgt>
<wgt id='1176'> +2.8659097e+11 </wgt>
<wgt id='1177'> +2.7806391e+11 </wgt>
<wgt id='1178'> +2.8365238e+11 </wgt>
<wgt id='1179'> +2.8262317e+11 </wgt>
<wgt id='1180'> +2.8980554e+11 </wgt>
<wgt id='1181'> +2.8700361e+11 </wgt>
<wgt id='1182'> +2.8008542e+11 </wgt>
<wgt id='1183'> +2.9064710e+11 </wgt>
<wgt id='1184'> +2.8297323e+11 </wgt>
<wgt id='1185'> +2.8699931e+11 </wgt>
<wgt id='1186'> +2.7655827e+11 </wgt>
<wgt id='1187'> +2.8429572e+11 </wgt>
<wgt id='1188'> +2.8666241e+11 </wgt>
<wgt id='1189'> +2.8234515e+11 </wgt>
<wgt id='1190'> +2.8136082e+11 </wgt>
<wgt id='1191'> +2.9112547e+11 </wgt>
<wgt id='1192'> +2.8906860e+11 </wgt>
<wgt id='1193'> +2.9147172e+11 </wgt>
<wgt id='1194'> +2.8104225e+11 </wgt>
<wgt id='1195'> +2.8432261e+11 </wgt>
<wgt id='1196'> +2.9161017e+11 </wgt>
<wgt id='1197'> +2.9132336e+11 </wgt>
<wgt id='1198'> +2.8363766e+11 </wgt>
<wgt id='1199'> +2.8758527e+11 </wgt>
<wgt id='1200'> +2.8676181e+11 </wgt>
<wgt id='1201'> +2.8040460e+11 </wgt>
<wgt id='1202'> +2.8668251e+11 </wgt>
<wgt id='1203'> +2.8098871e+11 </wgt>
<wgt id='1204'> +2.8326277e+11 </wgt>
<wgt id='1205'> +2.8375214e+11 </wgt>
<wgt id='1206'> +2.7928364e+11 </wgt>
<wgt id='1207'> +2.9128167e+11 </wgt>
<wgt id='1208'> +2.7078703e+11 </wgt>
<wgt id='1209'> +2.8272713e+11 </wgt>
<wgt id='1210'> +2.8527612e+11 </wgt>
<wgt id='1211'> +2.8469150e+11 </wgt>
<wgt id='1212'> +2.8308554e+11 </wgt>
<wgt id='1213'> +2.8941569e+11 </wgt>
<wgt id='1214'> +2.7723356e+11 </wgt>
<wgt id='1215'> +2.8536696e+11 </wgt>
<wgt id='1216'> +2.8209719e+11 </wgt>
<wgt id='1217'> +2.7759928e+11 </wgt>
<wgt id='1218'> +2.8485588e+11 </wgt>
<wgt id='1219'> +2.9365235e+11 </wgt>
<wgt id='1220'> +2.7926353e+11 </wgt>
<wgt id='1221'> +2.7649206e+11 </wgt>
<wgt id='1222'> +2.7879044e+11 </wgt>
<wgt id='1223'> +2.7315510e+11 </wgt>
<wgt id='1224'> +2.8286438e+11 </wgt>
<wgt id='1225'> +2.8776680e+11 </wgt>
<wgt id='1226'> +2.8703781e+11 </wgt>
<wgt id='1227'> +2.7903043e+11 </wgt>
<wgt id='1228'> +2.8210472e+11 </wgt>
<wgt id='1229'> +3.0130004e+11 </wgt>
<wgt id='1230'> +2.9029531e+11 </wgt>
<wgt id='1231'> +2.7783304e+11 </wgt>
<wgt id='1232'> +2.8742328e+11 </wgt>
<wgt id='1233'> +2.7655065e+11 </wgt>
<wgt id='1234'> +2.7737680e+11 </wgt>
<wgt id='1235'> +2.9995876e+11 </wgt>
<wgt id='1236'> +2.7741604e+11 </wgt>
<wgt id='1237'> +2.8910954e+11 </wgt>
<wgt id='1238'> +2.8324250e+11 </wgt>
<wgt id='1239'> +2.8700815e+11 </wgt>
<wgt id='1240'> +2.7932198e+11 </wgt>
<wgt id='1241'> +2.8511162e+11 </wgt>
<wgt id='1242'> +2.8001696e+11 </wgt>
<wgt id='1243'> +2.8599731e+11 </wgt>
<wgt id='1244'> +2.8617022e+11 </wgt>
<wgt id='1245'> +2.7912595e+11 </wgt>
<wgt id='1246'> +3.0487516e+11 </wgt>
<wgt id='1247'> +2.8167274e+11 </wgt>
<wgt id='1248'> +2.7341235e+11 </wgt>
<wgt id='1249'> +2.7590344e+11 </wgt>
<wgt id='1250'> +2.9294043e+11 </wgt>
<wgt id='1251'> +3.0071019e+11 </wgt>
<wgt id='1252'> +2.8813936e+11 </wgt>
<wgt id='1253'> +2.8918857e+11 </wgt>
<wgt id='1254'> +2.8910145e+11 </wgt>
<wgt id='1255'> +3.0146349e+11 </wgt>
<wgt id='1256'> +3.0150236e+11 </wgt>
<wgt id='1257'> +2.9668100e+11 </wgt>
<wgt id='1258'> +2.9524493e+11 </wgt>
<wgt id='1259'> +3.0024187e+11 </wgt>
<wgt id='1260'> +3.2664341e+11 </wgt>
<wgt id='1261'> +3.1436710e+11 </wgt>
<wgt id='1262'> +2.9257440e+11 </wgt>
<wgt id='1263'> +2.9859945e+11 </wgt>
<wgt id='1264'> +3.0144445e+11 </wgt>
<wgt id='1265'> +2.9587851e+11 </wgt>
<wgt id='1266'> +3.0120048e+11 </wgt>
<wgt id='1267'> +3.3515426e+11 </wgt>
<wgt id='1268'> +2.9127034e+11 </wgt>
<wgt id='1269'> +2.8721593e+11 </wgt>
<wgt id='1270'> +3.0012505e+11 </wgt>
<wgt id='1271'> +2.7148348e+11 </wgt>
<wgt id='1272'> +2.9336881e+11 </wgt>
<wgt id='1273'> +2.9115194e+11 </wgt>
<wgt id='1274'> +2.8680500e+11 </wgt>
<wgt id='1275'> +2.9588342e+11 </wgt>
<wgt id='1276'> +3.0024506e+11 </wgt>
<wgt id='1277'> +2.9530585e+11 </wgt>
<wgt id='1278'> +2.9577288e+11 </wgt>
<wgt id='1279'> +2.8032896e+11 </wgt>
<wgt id='1280'> +2.8798936e+11 </wgt>
<wgt id='1281'> +2.8537434e+11 </wgt>
<wgt id='1282'> +2.9594069e+11 </wgt>
<wgt id='1283'> +3.0455091e+11 </wgt>
<wgt id='1284'> +3.1125146e+11 </wgt>
<wgt id='1285'> +3.0843576e+11 </wgt>
<wgt id='1286'> +3.2966836e+11 </wgt>
<wgt id='1287'> +3.0599214e+11 </wgt>
<wgt id='1288'> +3.2995375e+11 </wgt>
<wgt id='1289'> +3.1396589e+11 </wgt>
<wgt id='1290'> +3.1232380e+11 </wgt>
<wgt id='1291'> +2.7838603e+11 </wgt>
<wgt id='1292'> +3.0112045e+11 </wgt>
<wgt id='1293'> +3.0256404e+11 </wgt>
<wgt id='1294'> +3.1966661e+11 </wgt>
<wgt id='1295'> +3.0699981e+11 </wgt>
<wgt id='1296'> +3.2365559e+11 </wgt>
<wgt id='1297'> +2.9294275e+11 </wgt>
<wgt id='1298'> +2.8830835e+11 </wgt>
<wgt id='1299'> +3.0232424e+11 </wgt>
<wgt id='1300'> +2.8679636e+11 </wgt>
<wgt id='1301'> +2.7965361e+11 </wgt>
<wgt id='1302'> +2.8183345e+11 </wgt>
<wgt id='1303'> +3.0156969e+11 </wgt>
<wgt id='1304'> +3.1819888e+11 </wgt>
<wgt id='1305'> +2.9876527e+11 </wgt>
<wgt id='1306'> +3.0604874e+11 </wgt>
<wgt id='1307'> +2.9446133e+11 </wgt>
<wgt id='1308'> +3.2880996e+11 </wgt>
<wgt id='1309'> +2.9898556e+11 </wgt>
<wgt id='1310'> +3.0308838e+11 </wgt>
<wgt id='1311'> +3.0232369e+11 </wgt>
<wgt id='1312'> +3.0718969e+11 </wgt>
<wgt id='1313'> +3.0109834e+11 </wgt>
<wgt id='1314'> +2.9840153e+11 </wgt>
<wgt id='1315'> +2.8705648e+11 </wgt>
<wgt id='1316'> +2.9978030e+11 </wgt>
<wgt id='1317'> +3.0724789e+11 </wgt>
<wgt id='1318'> +2.9067349e+11 </wgt>
<wgt id='1319'> +3.0000639e+11 </wgt>
<wgt id='1320'> +3.1440801e+11 </wgt>
<wgt id='1321'> +2.9839900e+11 </wgt>
<wgt id='1322'> +3.0379117e+11 </wgt>
<wgt id='1323'> +2.9359116e+11 </wgt>
<wgt id='1324'> +3.0513204e+11 </wgt>
<wgt id='1325'> +3.1215608e+11 </wgt>
<wgt id='1326'> +3.0738501e+11 </wgt>
<wgt id='1327'> +3.0610911e+11 </wgt>
<wgt id='1328'> +2.9865123e+11 </wgt>
<wgt id='1329'> +2.9820467e+11 </wgt>
<wgt id='1330'> +2.8755814e+11 </wgt>
<wgt id='1331'> +3.2167595e+11 </wgt>
<wgt id='1332'> +2.9281167e+11 </wgt>
<wgt id='1333'> +3.0200022e+11 </wgt>
<wgt id='1334'> +3.1590816e+11 </wgt>
<wgt id='1335'> +2.9315244e+11 </wgt>
<wgt id='1336'> +3.1080559e+11 </wgt>
<wgt id='1337'> +3.0905912e+11 </wgt>
<wgt id='1338'> +2.8868928e+11 </wgt>
<wgt id='1339'> +3.1745764e+11 </wgt>
<wgt id='1340'> +3.0523097e+11 </wgt>
<wgt id='1341'> +3.1536003e+11 </wgt>
<wgt id='1342'> +3.0792475e+11 </wgt>
<wgt id='1343'> +3.0951982e+11 </wgt>
<wgt id='1344'> +3.1239096e+11 </wgt>
<wgt id='1345'> +2.7044350e+11 </wgt>
<wgt id='1346'> +3.0290435e+11 </wgt>
<wgt id='1347'> +2.9038912e+11 </wgt>
<wgt id='1348'> +2.8976681e+11 </wgt>
<wgt id='1349'> +2.8793252e+11 </wgt>
<wgt id='1350'> +3.0549243e+11 </wgt>
<wgt id='1351'> +2.9357103e+11 </wgt>
<wgt id='1352'> +3.0280288e+11 </wgt>
<wgt id='1353'> +2.9953475e+11 </wgt>
<wgt id='1354'> +3.0881674e+11 </wgt>
<wgt id='1355'> +2.7669725e+11 </wgt>
<wgt id='1356'> +2.7937213e+11 </wgt>
<wgt id='1357'> +2.7708858e+11 </wgt>
<wgt id='1358'> +2.7474296e+11 </wgt>
<wgt id='1359'> +2.7663703e+11 </wgt>
<wgt id='1360'> +2.7125226e+11 </wgt>
<wgt id='1361'> +2.7590664e+11 </wgt>
<wgt id='1362'> +2.8219227e+11 </wgt>
<wgt id='1363'> +2.7298704e+11 </wgt>
<wgt id='1364'> +2.8177263e+11 </wgt>
<wgt id='1365'> +2.7450970e+11 </wgt>
<wgt id='1366'> +2.7422020e+11 </wgt>
<wgt id='1367'> +2.7702688e+11 </wgt>
<wgt id='1368'> +2.7703069e+11 </wgt>
<wgt id='1369'> +2.7985549e+11 </wgt>
<wgt id='1370'> +2.7437471e+11 </wgt>
<wgt id='1371'> +2.7648659e+11 </wgt>
<wgt id='1372'> +2.7944280e+11 </wgt>
<wgt id='1373'> +2.7994700e+11 </wgt>
<wgt id='1374'> +2.6900610e+11 </wgt>
<wgt id='1375'> +2.7711472e+11 </wgt>
<wgt id='1376'> +2.7636702e+11 </wgt>
<wgt id='1377'> +2.7724312e+11 </wgt>
<wgt id='1378'> +2.7501227e+11 </wgt>
<wgt id='1379'> +2.7517547e+11 </wgt>
<wgt id='1380'> +2.7440632e+11 </wgt>
<wgt id='1381'> +2.8157525e+11 </wgt>
<wgt id='1382'> +2.7587025e+11 </wgt>
<wgt id='1383'> +2.7503341e+11 </wgt>
<wgt id='1384'> +2.7368994e+11 </wgt>
<wgt id='1385'> +2.7327380e+11 </wgt>
<wgt id='1386'> +2.7634049e+11 </wgt>
<wgt id='1387'> +2.7511367e+11 </wgt>
<wgt id='1388'> +2.7222444e+11 </wgt>
<wgt id='1389'> +2.7558899e+11 </wgt>
<wgt id='1390'> +2.7780724e+11 </wgt>
<wgt id='1391'> +2.7480514e+11 </wgt>
<wgt id='1392'> +2.7395496e+11 </wgt>
<wgt id='1393'> +2.7648178e+11 </wgt>
<wgt id='1394'> +2.7504925e+11 </wgt>
<wgt id='1395'> +2.7200451e+11 </wgt>
<wgt id='1396'> +2.7729505e+11 </wgt>
<wgt id='1397'> +2.7747867e+11 </wgt>
<wgt id='1398'> +2.7857847e+11 </wgt>
<wgt id='1399'> +2.7376562e+11 </wgt>
<wgt id='1400'> +2.7253213e+11 </wgt>
<wgt id='1401'> +2.7678549e+11 </wgt>
<wgt id='1402'> +2.7951479e+11 </wgt>
<wgt id='1403'> +2.8262266e+11 </wgt>
<wgt id='1404'> +2.7771338e+11 </wgt>
<wgt id='1405'> +2.8308469e+11 </wgt>
<wgt id='1406'> +2.7813533e+11 </wgt>
<wgt id='1407'> +2.7706557e+11 </wgt>
<wgt id='1408'> +2.8152715e+11 </wgt>
<wgt id='1409'> +2.7320055e+11 </wgt>
<wgt id='1410'> +2.7096303e+11 </wgt>
<wgt id='1411'> +2.7641972e+11 </wgt>
<wgt id='1412'> +2.7497493e+11 </wgt>
<wgt id='1413'> +2.7544943e+11 </wgt>
<wgt id='1414'> +2.7907926e+11 </wgt>
<wgt id='1415'> +2.7988866e+11 </wgt>
<wgt id='1416'> +2.7895860e+11 </wgt>
<wgt id='1417'> +2.7252209e+11 </wgt>
<wgt id='1418'> +2.7700261e+11 </wgt>
<wgt id='1419'> +2.8044913e+11 </wgt>
<wgt id='1420'> +2.7463233e+11 </wgt>
<wgt id='1421'> +2.8288742e+11 </wgt>
<wgt id='1422'> +2.6980527e+11 </wgt>
<wgt id='1423'> +2.8148914e+11 </wgt>
<wgt id='1424'> +2.7781999e+11 </wgt>
<wgt id='1425'> +2.7727862e+11 </wgt>
<wgt id='1426'> +2.7909418e+11 </wgt>
<wgt id='1427'> +2.7614561e+11 </wgt>
<wgt id='1428'> +2.7600238e+11 </wgt>
<wgt id='1429'> +2.7559120e+11 </wgt>
<wgt id='1430'> +2.7271765e+11 </wgt>
<wgt id='1431'> +2.7175418e+11 </wgt>
<wgt id='1432'> +2.7624929e+11 </wgt>
<wgt id='1433'> +2.7500822e+11 </wgt>
<wgt id='1434'> +2.8413167e+11 </wgt>
<wgt id='1435'> +2.7566765e+11 </wgt>
<wgt id='1436'> +2.8046100e+11 </wgt>
<wgt id='1437'> +2.7719239e+11 </wgt>
<wgt id='1438'> +2.7576556e+11 </wgt>
<wgt id='1439'> +2.8016395e+11 </wgt>
<wgt id='1440'> +2.7952622e+11 </wgt>
<wgt id='1441'> +2.7450203e+11 </wgt>
<wgt id='1442'> +2.8195379e+11 </wgt>
<wgt id='1443'> +2.7426867e+11 </wgt>
<wgt id='1444'> +2.7838247e+11 </wgt>
<wgt id='1445'> +2.7794520e+11 </wgt>
<wgt id='1446'> +2.8170062e+11 </wgt>
<wgt id='1447'> +2.7419563e+11 </wgt>
<wgt id='1448'> +2.7914279e+11 </wgt>
<wgt id='1449'> +2.7930183e+11 </wgt>
<wgt id='1450'> +2.7581298e+11 </wgt>
<wgt id='1451'> +2.7800036e+11 </wgt>
<wgt id='1452'> +2.7901137e+11 </wgt>
<wgt id='1453'> +2.7882339e+11 </wgt>
<wgt id='1454'> +2.6904541e+11 </wgt>
<wgt id='1455'> +2.7556601e+11 </wgt>
<wgt id='1456'> +2.7568617e+11 </wgt>
<wgt id='1457'> +2.7571917e+11 </wgt>
<wgt id='1458'> +2.8069211e+11 </wgt>
<wgt id='1459'> +3.0830503e+11 </wgt>
<wgt id='1460'> +3.0342662e+11 </wgt>
<wgt id='1461'> +3.5653351e+11 </wgt>
<wgt id='1462'> +2.9920182e+11 </wgt>
<wgt id='1463'> +2.9943570e+11 </wgt>
<wgt id='1464'> +2.9890187e+11 </wgt>
<wgt id='1465'> +2.9926610e+11 </wgt>
<wgt id='1466'> +2.9914310e+11 </wgt>
<wgt id='1467'> +2.9933912e+11 </wgt>
<wgt id='1468'> +2.9897652e+11 </wgt>
<wgt id='1469'> +2.9876308e+11 </wgt>
<wgt id='1470'> +2.9955815e+11 </wgt>
<wgt id='1471'> +2.9966297e+11 </wgt>
<wgt id='1472'> +2.9872684e+11 </wgt>
<wgt id='1473'> +3.0037202e+11 </wgt>
<wgt id='1474'> +2.9807785e+11 </wgt>
<wgt id='1475'> +3.0031392e+11 </wgt>
<wgt id='1476'> +2.9841340e+11 </wgt>
<wgt id='1477'> +2.9864419e+11 </wgt>
<wgt id='1478'> +3.0050451e+11 </wgt>
<wgt id='1479'> +2.9874937e+11 </wgt>
<wgt id='1480'> +2.9951995e+11 </wgt>
<wgt id='1481'> +2.9872887e+11 </wgt>
<wgt id='1482'> +2.9984048e+11 </wgt>
<wgt id='1483'> +2.9928406e+11 </wgt>
<wgt id='1484'> +2.9908629e+11 </wgt>
<wgt id='1485'> +2.9940952e+11 </wgt>
<wgt id='1486'> +2.9870165e+11 </wgt>
<wgt id='1487'> +2.9947098e+11 </wgt>
<wgt id='1488'> +2.9886507e+11 </wgt>
<wgt id='1489'> +2.9884051e+11 </wgt>
<wgt id='1490'> +3.0018150e+11 </wgt>
<wgt id='1491'> +3.0414404e+11 </wgt>
<wgt id='1492'> +2.9644585e+11 </wgt>
<wgt id='1493'> +2.9563843e+11 </wgt>
<wgt id='1494'> +3.1037493e+11 </wgt>
<wgt id='1495'> +2.9848643e+11 </wgt>
<wgt id='1496'> +2.9996958e+11 </wgt>
<wgt id='1497'> +2.9940193e+11 </wgt>
<wgt id='1498'> +2.9892837e+11 </wgt>
<wgt id='1499'> +3.0115184e+11 </wgt>
<wgt id='1500'> +2.9813591e+11 </wgt>
<wgt id='1501'> +2.9962620e+11 </wgt>
<wgt id='1502'> +2.9807872e+11 </wgt>
<wgt id='1503'> +2.9567385e+11 </wgt>
<wgt id='1504'> +3.0303272e+11 </wgt>
<wgt id='1505'> +3.0008662e+11 </wgt>
<wgt id='1506'> +2.9834094e+11 </wgt>
<wgt id='1507'> +3.0129487e+11 </wgt>
<wgt id='1508'> +2.9668566e+11 </wgt>
<wgt id='1509'> +2.9985689e+11 </wgt>
<wgt id='1510'> +2.9638499e+11 </wgt>
<wgt id='1511'> +3.0037035e+11 </wgt>
<wgt id='1512'> +2.9884775e+11 </wgt>
<wgt id='1513'> +2.9909534e+11 </wgt>
<wgt id='1514'> +2.9932036e+11 </wgt>
<wgt id='1515'> +3.0210800e+11 </wgt>
<wgt id='1516'> +2.9932874e+11 </wgt>
<wgt id='1517'> +2.9877461e+11 </wgt>
<wgt id='1518'> +2.9965598e+11 </wgt>
<wgt id='1519'> +2.9743059e+11 </wgt>
<wgt id='1520'> +3.0045979e+11 </wgt>
<wgt id='1521'> +2.9825559e+11 </wgt>
<wgt id='1522'> +2.9975212e+11 </wgt>
<wgt id='1523'> +3.0046713e+11 </wgt>
<wgt id='1524'> +3.0068992e+11 </wgt>
<wgt id='1525'> +3.0022577e+11 </wgt>
<wgt id='1526'> +3.0026056e+11 </wgt>
<wgt id='1527'> +2.9920182e+11 </wgt>
<wgt id='1528'> +2.9867587e+11 </wgt>
<wgt id='1529'> +2.9929216e+11 </wgt>
<wgt id='1530'> +2.9542416e+11 </wgt>
<wgt id='1531'> +2.9851562e+11 </wgt>
<wgt id='1532'> +2.9667069e+11 </wgt>
<wgt id='1533'> +2.9361011e+11 </wgt>
<wgt id='1534'> +2.9696732e+11 </wgt>
<wgt id='1535'> +3.0119098e+11 </wgt>
<wgt id='1536'> +2.9574870e+11 </wgt>
<wgt id='1537'> +2.9893481e+11 </wgt>
<wgt id='1538'> +2.9515206e+11 </wgt>
<wgt id='1539'> +3.0412539e+11 </wgt>
<wgt id='1540'> +2.9846618e+11 </wgt>
<wgt id='1541'> +2.9946453e+11 </wgt>
<wgt id='1542'> +2.9854234e+11 </wgt>
<wgt id='1543'> +2.9990801e+11 </wgt>
<wgt id='1544'> +2.9669682e+11 </wgt>
<wgt id='1545'> +2.9650346e+11 </wgt>
<wgt id='1546'> +2.9460435e+11 </wgt>
<wgt id='1547'> +3.0083401e+11 </wgt>
<wgt id='1548'> +2.9684691e+11 </wgt>
<wgt id='1549'> +2.9503640e+11 </wgt>
<wgt id='1550'> +2.9976966e+11 </wgt>
<wgt id='1551'> +2.9911040e+11 </wgt>
<wgt id='1552'> +2.9820824e+11 </wgt>
<wgt id='1553'> +3.0133784e+11 </wgt>
<wgt id='1554'> +2.9848371e+11 </wgt>
<wgt id='1555'> +2.9928091e+11 </wgt>
<wgt id='1556'> +3.0079771e+11 </wgt>
<wgt id='1557'> +2.9770443e+11 </wgt>
<wgt id='1558'> +2.9870803e+11 </wgt>
<wgt id='1559'> +2.9616646e+11 </wgt>
<wgt id='1560'> +2.9725121e+11 </wgt>
<wgt id='1561'> +2.9552709e+11 </wgt>
<wgt id='1562'> +2.9708097e+11 </wgt>
<wgt id='1563'> +2.9864080e+11 </wgt>
<wgt id='1564'> +2.9811006e+11 </wgt>
<wgt id='1565'> +3.0078021e+11 </wgt>
<wgt id='1566'> +2.9852192e+11 </wgt>
<wgt id='1567'> +3.0143248e+11 </wgt>
<wgt id='1568'> +2.9841797e+11 </wgt>
<wgt id='1569'> +2.9808403e+11 </wgt>
<wgt id='1570'> +3.0485848e+11 </wgt>
<wgt id='1571'> +2.9843825e+11 </wgt>
<wgt id='1572'> +3.0054506e+11 </wgt>
<wgt id='1573'> +3.0199711e+11 </wgt>
<wgt id='1574'> +2.5882127e+11 </wgt>
<wgt id='1575'> +2.5889065e+11 </wgt>
<wgt id='1576'> +2.5875338e+11 </wgt>
<wgt id='1577'> +2.5883933e+11 </wgt>
<wgt id='1578'> +2.5941834e+11 </wgt>
<wgt id='1579'> +2.5965445e+11 </wgt>
<wgt id='1580'> +2.5942336e+11 </wgt>
<wgt id='1581'> +2.5826450e+11 </wgt>
<wgt id='1582'> +2.5797662e+11 </wgt>
<wgt id='1583'> +2.5837588e+11 </wgt>
<wgt id='1584'> +2.5939043e+11 </wgt>
<wgt id='1585'> +2.5903439e+11 </wgt>
<wgt id='1586'> +2.5790162e+11 </wgt>
<wgt id='1587'> +2.5810650e+11 </wgt>
<wgt id='1588'> +2.5763326e+11 </wgt>
<wgt id='1589'> +2.5854068e+11 </wgt>
<wgt id='1590'> +2.5865289e+11 </wgt>
<wgt id='1591'> +2.5889529e+11 </wgt>
<wgt id='1592'> +2.5781561e+11 </wgt>
<wgt id='1593'> +2.5785064e+11 </wgt>
<wgt id='1594'> +2.5974864e+11 </wgt>
<wgt id='1595'> +2.5644690e+11 </wgt>
<wgt id='1596'> +2.6271765e+11 </wgt>
<wgt id='1597'> +2.6059830e+11 </wgt>
<wgt id='1598'> +2.6077731e+11 </wgt>
<wgt id='1599'> +2.5595084e+11 </wgt>
<wgt id='1600'> +2.6347690e+11 </wgt>
<wgt id='1601'> +2.6097134e+11 </wgt>
<wgt id='1602'> +2.5886500e+11 </wgt>
<wgt id='1603'> +2.7089197e+11 </wgt>
<wgt id='1604'> +2.5896519e+11 </wgt>
</rwgt>
</event>
<event>
 9      1 +2.8343000e+11 1.40000000e+03 7.81738600e-03 7.88881100e-02
       21 -1    0    0  504  503 +0.0000000000e+00 +0.0000000000e+00 +3.7385350601e+02 3.7385350601e+02 0.0000000000e+00 0.0000e+00 1.0000e+00
       21 -1    0    0  503  504 -0.0000000000e+00 -0.0000000000e+00 -1.3106741944e+03 1.3106741944e+03 0.0000000000e+00 0.0000e+00 1.0000e+00
       45  2    1    2    0    0 +2.8421709430e-14 +0.0000000000e+00 -9.3682068844e+02 1.6845277005e+03 1.4000002040e+03 0.0000e+00 0.0000e+00
       25  2    3    3    0    0 -2.0564001389e+02 -6.5478041490e+02 -5.7173537611e+02 9.0195987142e+02 1.2500024924e+02 0.0000e+00 0.0000e+00
       35  2    3    3    0    0 +2.0564001389e+02 +6.5478041490e+02 -3.6508531233e+02 7.8256782904e+02 8.9999526183e+01 0.0000e+00 0.0000e+00
        5  1    5    5  501    0 +8.5811412907e+01 +3.7623937977e+02 -2.4045494715e+02 4.5470430928e+02 4.2140000000e+00 0.0000e+00 1.0000e+00
       -5  1    5    5    0  501 +1.1982860098e+02 +2.7854103514e+02 -1.2463036518e+02 3.2786351976e+02 4.2140000000e+00 0.0000e+00 1.0000e+00
        5  1    4    4  502    0 -1.4008055195e+02 -5.8116099491e+02 -5.0788523801e+02 7.8443344895e+02 4.2140000000e+00 0.0000e+00 -1.0000e+00
       -5  1    4    4    0  502 -6.5559461932e+01 -7.3619419993e+01 -6.3850138095e+01 1.1752642247e+02 4.2140000000e+00 0.0000e+00 -1.0000e+00
<mgrwt>
<rscale>  0 0.14000002E+04</rscale>
<asrwt>0</asrwt>
<pdfrwt beam="1">  1       21 0.57515924E-01 0.14000002E+04</pdfrwt>
<pdfrwt beam="2">  1       21 0.20164218E+00 0.14000002E+04</pdfrwt>
<totfact> 0.25188816E+02</totfact>
</mgrwt>
<rwgt>
<wgt id='1001'> +2.8343000e+11 </wgt>
<wgt id='1002'> +2.8391265e+11 </wgt>
<wgt id='1003'> +2.8391118e+11 </wgt>
<wgt id='1004'> +3.1961268e+11 </wgt>
<wgt id='1005'> +2.8343000e+11 </wgt>
<wgt id='1006'> +2.8343000e+11 </wgt>
<wgt id='1007'> +2.8391265e+11 </wgt>
<wgt id='1008'> +2.8391118e+11 </wgt>
<wgt id='1009'> +3.1961268e+11 </wgt>
<wgt id='1010'> +2.8343000e+11 </wgt>
<wgt id='1011'> +2.8343000e+11 </wgt>
<wgt id='1012'> +2.8391265e+11 </wgt>
<wgt id='1013'> +2.8391118e+11 </wgt>
<wgt id='1014'> +3.1961268e+11 </wgt>
<wgt id='1015'> +2.8343000e+11 </wgt>
<wgt id='1016'> +2.5367525e+11 </wgt>
<wgt id='1017'> +2.5408198e+11 </wgt>
<wgt id='1018'> +2.5408075e+11 </wgt>
<wgt id='1019'> +2.8391118e+11 </wgt>
<wgt id='1020'> +2.5367525e+11 </wgt>
<wgt id='1021'> +2.5367525e+11 </wgt>
<wgt id='1022'> +2.5408198e+11 </wgt>
<wgt id='1023'> +2.5408075e+11 </wgt>
<wgt id='1024'> +2.8391118e+11 </wgt>
<wgt id='1025'> +2.5367525e+11 </wgt>
<wgt id='1026'> +2.5367525e+11 </wgt>
<wgt id='1027'> +2.5408198e+11 </wgt>
<wgt id='1028'> +2.5408075e+11 </wgt>
<wgt id='1029'> +2.8391118e+11 </wgt>
<wgt id='1030'> +2.5367525e+11 </wgt>
<wgt id='1031'> +3.1903342e+11 </wgt>
<wgt id='1032'> +3.1961445e+11 </wgt>
<wgt id='1033'> +3.1961268e+11 </wgt>
<wgt id='1034'> +3.6274800e+11 </wgt>
<wgt id='1035'> +3.1903342e+11 </wgt>
<wgt id='1036'> +3.1903342e+11 </wgt>
<wgt id='1037'> +3.1961445e+11 </wgt>
<wgt id='1038'> +3.1961268e+11 </wgt>
<wgt id='1039'> +3.6274800e+11 </wgt>
<wgt id='1040'> +3.1903342e+11 </wgt>
<wgt id='1041'> +3.1903342e+11 </wgt>
<wgt id='1042'> +3.1961445e+11 </wgt>
<wgt id='1043'> +3.1961268e+11 </wgt>
<wgt id='1044'> +3.6274800e+11 </wgt>
<wgt id='1045'> +3.1903342e+11 </wgt>
<wgt id='1046'> +2.8343000e+11 </wgt>
<wgt id='1047'> +2.8343000e+11 </wgt>
<wgt id='1048'> +2.8343000e+11 </wgt>
<wgt id='1049'> +2.8297434e+11 </wgt>
<wgt id='1050'> +2.8320267e+11 </wgt>
<wgt id='1051'> +2.8334503e+11 </wgt>
<wgt id='1052'> +2.8421477e+11 </wgt>
<wgt id='1053'> +2.8159833e+11 </wgt>
<wgt id='1054'> +2.8377794e+11 </wgt>
<wgt id='1055'> +2.8213963e+11 </wgt>
<wgt id='1056'> +2.8212295e+11 </wgt>
<wgt id='1057'> +2.8291712e+11 </wgt>
<wgt id='1058'> +2.8264737e+11 </wgt>
<wgt id='1059'> +2.8544500e+11 </wgt>
<wgt id='1060'> +2.8375582e+11 </wgt>
<wgt id='1061'> +2.8396942e+11 </wgt>
<wgt id='1062'> +2.8429691e+11 </wgt>
<wgt id='1063'> +2.8468330e+11 </wgt>
<wgt id='1064'> +2.8406395e+11 </wgt>
<wgt id='1065'> +2.8476861e+11 </wgt>
<wgt id='1066'> +2.8142869e+11 </wgt>
<wgt id='1067'> +2.8228927e+11 </wgt>
<wgt id='1068'> +2.8374218e+11 </wgt>
<wgt id='1069'> +2.8254839e+11 </wgt>
<wgt id='1070'> +2.8407114e+11 </wgt>
<wgt id='1071'> +2.8268589e+11 </wgt>
<wgt id='1072'> +2.8334822e+11 </wgt>
<wgt id='1073'> +2.8255926e+11 </wgt>
<wgt id='1074'> +2.8264661e+11 </wgt>
<wgt id='1075'> +2.8404139e+11 </wgt>
<wgt id='1076'> +2.8158369e+11 </wgt>
<wgt id='1077'> +2.8202324e+11 </wgt>
<wgt id='1078'> +2.8411628e+11 </wgt>
<wgt id='1079'> +2.8222064e+11 </wgt>
<wgt id='1080'> +2.8307590e+11 </wgt>
<wgt id='1081'> +2.8300007e+11 </wgt>
<wgt id='1082'> +2.8227626e+11 </wgt>
<wgt id='1083'> +2.8438505e+11 </wgt>
<wgt id='1084'> +2.8400395e+11 </wgt>
<wgt id='1085'> +2.8269977e+11 </wgt>
<wgt id='1086'> +2.8336435e+11 </wgt>
<wgt id='1087'> +2.8340336e+11 </wgt>
<wgt id='1088'> +2.8295304e+11 </wgt>
<wgt id='1089'> +2.8249643e+11 </wgt>
<wgt id='1090'> +2.8403229e+11 </wgt>
<wgt id='1091'> +2.8359516e+11 </wgt>
<wgt id='1092'> +2.8363478e+11 </wgt>
<wgt id='1093'> +2.8349661e+11 </wgt>
<wgt id='1094'> +2.8231284e+11 </wgt>
<wgt id='1095'> +2.8366146e+11 </wgt>
<wgt id='1096'> +2.8341359e+11 </wgt>
<wgt id='1097'> +2.8285189e+11 </wgt>
<wgt id='1098'> +2.8319362e+11 </wgt>
<wgt id='1099'> +2.8323035e+11 </wgt>
<wgt id='1100'> +2.8403857e+11 </wgt>
<wgt id='1101'> +2.8350060e+11 </wgt>
<wgt id='1102'> +2.8334143e+11 </wgt>
<wgt id='1103'> +2.8274641e+11 </wgt>
<wgt id='1104'> +2.8327480e+11 </wgt>
<wgt id='1105'> +2.8351179e+11 </wgt>
<wgt id='1106'> +2.8378134e+11 </wgt>
<wgt id='1107'> +2.8363957e+11 </wgt>
<wgt id='1108'> +2.8322022e+11 </wgt>
<wgt id='1109'> +2.8327976e+11 </wgt>
<wgt id='1110'> +2.8365269e+11 </wgt>
<wgt id='1111'> +2.8368014e+11 </wgt>
<wgt id='1112'> +2.8334289e+11 </wgt>
<wgt id='1113'> +2.8377328e+11 </wgt>
<wgt id='1114'> +2.8314091e+11 </wgt>
<wgt id='1115'> +2.8299672e+11 </wgt>
<wgt id='1116'> +2.8407984e+11 </wgt>
<wgt id='1117'> +2.8335824e+11 </wgt>
<wgt id='1118'> +2.8373552e+11 </wgt>
<wgt id='1119'> +2.8304547e+11 </wgt>
<wgt id='1120'> +2.8308240e+11 </wgt>
<wgt id='1121'> +2.8350323e+11 </wgt>
<wgt id='1122'> +2.8308255e+11 </wgt>
<wgt id='1123'> +2.8337562e+11 </wgt>
<wgt id='1124'> +2.8346994e+11 </wgt>
<wgt id='1125'> +2.8363019e+11 </wgt>
<wgt id='1126'> +2.8355525e+11 </wgt>
<wgt id='1127'> +2.8328314e+11 </wgt>
<wgt id='1128'> +2.8338122e+11 </wgt>
<wgt id='1129'> +2.8326802e+11 </wgt>
<wgt id='1130'> +2.8346014e+11 </wgt>
<wgt id='1131'> +2.8394071e+11 </wgt>
<wgt id='1132'> +2.8332347e+11 </wgt>
<wgt id='1133'> +2.8356849e+11 </wgt>
<wgt id='1134'> +2.8340814e+11 </wgt>
<wgt id='1135'> +2.8346281e+11 </wgt>
<wgt id='1136'> +2.8331909e+11 </wgt>
<wgt id='1137'> +2.8321255e+11 </wgt>
<wgt id='1138'> +2.8357855e+11 </wgt>
<wgt id='1139'> +2.8352845e+11 </wgt>
<wgt id='1140'> +2.8370111e+11 </wgt>
<wgt id='1141'> +2.8318294e+11 </wgt>
<wgt id='1142'> +2.8348435e+11 </wgt>
<wgt id='1143'> +2.8362524e+11 </wgt>
<wgt id='1144'> +2.8332697e+11 </wgt>
<wgt id='1145'> +2.8358894e+11 </wgt>
<wgt id='1146'> +2.8349602e+11 </wgt>
<wgt id='1147'> +2.8348953e+11 </wgt>
<wgt id='1148'> +2.8343000e+11 </wgt>
<wgt id='1149'> +2.8343000e+11 </wgt>
<wgt id='1150'> +2.9691015e+11 </wgt>
<wgt id='1151'> +2.7650462e+11 </wgt>
<wgt id='1152'> +2.7349671e+11 </wgt>
<wgt id='1153'> +2.8563234e+11 </wgt>
<wgt id='1154'> +2.8010580e+11 </wgt>
<wgt id='1155'> +2.9548559e+11 </wgt>
<wgt id='1156'> +2.7924432e+11 </wgt>
<wgt id='1157'> +2.7530448e+11 </wgt>
<wgt id='1158'> +2.7703190e+11 </wgt>
<wgt id='1159'> +2.9817691e+11 </wgt>
<wgt id='1160'> +2.8566868e+11 </wgt>
<wgt id='1161'> +2.9095730e+11 </wgt>
<wgt id='1162'> +2.8643581e+11 </wgt>
<wgt id='1163'> +2.8693308e+11 </wgt>
<wgt id='1164'> +2.7424138e+11 </wgt>
<wgt id='1165'> +2.7775171e+11 </wgt>
<wgt id='1166'> +2.8323141e+11 </wgt>
<wgt id='1167'> +2.7818546e+11 </wgt>
<wgt id='1168'> +2.7362753e+11 </wgt>
<wgt id='1169'> +2.7621836e+11 </wgt>
<wgt id='1170'> +2.8468192e+11 </wgt>
<wgt id='1171'> +2.7339426e+11 </wgt>
<wgt id='1172'> +2.7366293e+11 </wgt>
<wgt id='1173'> +2.8576416e+11 </wgt>
<wgt id='1174'> +2.7672605e+11 </wgt>
<wgt id='1175'> +2.7892743e+11 </wgt>
<wgt id='1176'> +2.8737123e+11 </wgt>
<wgt id='1177'> +2.7887620e+11 </wgt>
<wgt id='1178'> +2.8514227e+11 </wgt>
<wgt id='1179'> +2.8603024e+11 </wgt>
<wgt id='1180'> +2.7991903e+11 </wgt>
<wgt id='1181'> +2.9383652e+11 </wgt>
<wgt id='1182'> +2.8063919e+11 </wgt>
<wgt id='1183'> +2.8875352e+11 </wgt>
<wgt id='1184'> +2.7818587e+11 </wgt>
<wgt id='1185'> +2.8942423e+11 </wgt>
<wgt id='1186'> +2.7855563e+11 </wgt>
<wgt id='1187'> +2.8496110e+11 </wgt>
<wgt id='1188'> +2.9044146e+11 </wgt>
<wgt id='1189'> +2.8176964e+11 </wgt>
<wgt id='1190'> +2.8024454e+11 </wgt>
<wgt id='1191'> +2.9031068e+11 </wgt>
<wgt id='1192'> +2.8779959e+11 </wgt>
<wgt id='1193'> +2.8929855e+11 </wgt>
<wgt id='1194'> +2.7867076e+11 </wgt>
<wgt id='1195'> +2.8653062e+11 </wgt>
<wgt id='1196'> +2.9108274e+11 </wgt>
<wgt id='1197'> +2.9055110e+11 </wgt>
<wgt id='1198'> +2.8687080e+11 </wgt>
<wgt id='1199'> +2.8743643e+11 </wgt>
<wgt id='1200'> +2.9037363e+11 </wgt>
<wgt id='1201'> +2.8197830e+11 </wgt>
<wgt id='1202'> +2.8522293e+11 </wgt>
<wgt id='1203'> +2.8416798e+11 </wgt>
<wgt id='1204'> +2.8056627e+11 </wgt>
<wgt id='1205'> +2.8467647e+11 </wgt>
<wgt id='1206'> +2.8083709e+11 </wgt>
<wgt id='1207'> +2.9132208e+11 </wgt>
<wgt id='1208'> +2.7089714e+11 </wgt>
<wgt id='1209'> +2.8501445e+11 </wgt>
<wgt id='1210'> +2.8724516e+11 </wgt>
<wgt id='1211'> +2.8162908e+11 </wgt>
<wgt id='1212'> +2.8299536e+11 </wgt>
<wgt id='1213'> +2.8673307e+11 </wgt>
<wgt id='1214'> +2.7898739e+11 </wgt>
<wgt id='1215'> +2.8018209e+11 </wgt>
<wgt id='1216'> +2.7701905e+11 </wgt>
<wgt id='1217'> +2.8031779e+11 </wgt>
<wgt id='1218'> +2.8508497e+11 </wgt>
<wgt id='1219'> +2.9346047e+11 </wgt>
<wgt id='1220'> +2.8076404e+11 </wgt>
<wgt id='1221'> +2.7698025e+11 </wgt>
<wgt id='1222'> +2.7873563e+11 </wgt>
<wgt id='1223'> +2.7386007e+11 </wgt>
<wgt id='1224'> +2.8230219e+11 </wgt>
<wgt id='1225'> +2.8387995e+11 </wgt>
<wgt id='1226'> +2.8546586e+11 </wgt>
<wgt id='1227'> +2.8120145e+11 </wgt>
<wgt id='1228'> +2.8250665e+11 </wgt>
<wgt id='1229'> +2.9994542e+11 </wgt>
<wgt id='1230'> +2.8817479e+11 </wgt>
<wgt id='1231'> +2.7775171e+11 </wgt>
<wgt id='1232'> +2.8774295e+11 </wgt>
<wgt id='1233'> +2.7652529e+11 </wgt>
<wgt id='1234'> +2.7853774e+11 </wgt>
<wgt id='1235'> +3.0012680e+11 </wgt>
<wgt id='1236'> +2.7907738e+11 </wgt>
<wgt id='1237'> +2.9034928e+11 </wgt>
<wgt id='1238'> +2.7990077e+11 </wgt>
<wgt id='1239'> +2.8614132e+11 </wgt>
<wgt id='1240'> +2.7563155e+11 </wgt>
<wgt id='1241'> +2.8845301e+11 </wgt>
<wgt id='1242'> +2.8060103e+11 </wgt>
<wgt id='1243'> +2.8420484e+11 </wgt>
<wgt id='1244'> +2.9048184e+11 </wgt>
<wgt id='1245'> +2.7587148e+11 </wgt>
<wgt id='1246'> +3.0385556e+11 </wgt>
<wgt id='1247'> +2.8136001e+11 </wgt>
<wgt id='1248'> +2.7332714e+11 </wgt>
<wgt id='1249'> +2.7548604e+11 </wgt>
<wgt id='1250'> +2.9407614e+11 </wgt>
<wgt id='1251'> +3.0254630e+11 </wgt>
<wgt id='1252'> +2.8840149e+11 </wgt>
<wgt id='1253'> +2.9363717e+11 </wgt>
<wgt id='1254'> +2.8997819e+11 </wgt>
<wgt id='1255'> +3.0474735e+11 </wgt>
<wgt id='1256'> +3.0455672e+11 </wgt>
<wgt id='1257'> +3.0157141e+11 </wgt>
<wgt id='1258'> +2.9230845e+11 </wgt>
<wgt id='1259'> +3.0634943e+11 </wgt>
<wgt id='1260'> +3.2928458e+11 </wgt>
<wgt id='1261'> +3.1583562e+11 </wgt>
<wgt id='1262'> +2.9523278e+11 </wgt>
<wgt id='1263'> +3.0016340e+11 </wgt>
<wgt id='1264'> +3.0300811e+11 </wgt>
<wgt id='1265'> +2.9302257e+11 </wgt>
<wgt id='1266'> +3.0509489e+11 </wgt>
<wgt id='1267'> +3.5051946e+11 </wgt>
<wgt id='1268'> +2.8869214e+11 </wgt>
<wgt id='1269'> +2.8668426e+11 </wgt>
<wgt id='1270'> +3.0659736e+11 </wgt>
<wgt id='1271'> +2.6583808e+11 </wgt>
<wgt id='1272'> +2.9388542e+11 </wgt>
<wgt id='1273'> +2.9096316e+11 </wgt>
<wgt id='1274'> +2.8712795e+11 </wgt>
<wgt id='1275'> +2.9334597e+11 </wgt>
<wgt id='1276'> +3.0461216e+11 </wgt>
<wgt id='1277'> +2.9986892e+11 </wgt>
<wgt id='1278'> +3.0023014e+11 </wgt>
<wgt id='1279'> +2.7929554e+11 </wgt>
<wgt id='1280'> +2.8588437e+11 </wgt>
<wgt id='1281'> +2.8529129e+11 </wgt>
<wgt id='1282'> +2.9492679e+11 </wgt>
<wgt id='1283'> +3.1251065e+11 </wgt>
<wgt id='1284'> +3.0761377e+11 </wgt>
<wgt id='1285'> +3.0811276e+11 </wgt>
<wgt id='1286'> +3.3166543e+11 </wgt>
<wgt id='1287'> +3.1249632e+11 </wgt>
<wgt id='1288'> +3.3800189e+11 </wgt>
<wgt id='1289'> +3.1608233e+11 </wgt>
<wgt id='1290'> +3.1322204e+11 </wgt>
<wgt id='1291'> +2.7890264e+11 </wgt>
<wgt id='1292'> +3.0422250e+11 </wgt>
<wgt id='1293'> +3.0378027e+11 </wgt>
<wgt id='1294'> +3.2637313e+11 </wgt>
<wgt id='1295'> +3.1114179e+11 </wgt>
<wgt id='1296'> +3.3236816e+11 </wgt>
<wgt id='1297'> +2.8988020e+11 </wgt>
<wgt id='1298'> +2.8960390e+11 </wgt>
<wgt id='1299'> +3.0506889e+11 </wgt>
<wgt id='1300'> +2.8124236e+11 </wgt>
<wgt id='1301'> +2.7981770e+11 </wgt>
<wgt id='1302'> +2.8211553e+11 </wgt>
<wgt id='1303'> +3.0479375e+11 </wgt>
<wgt id='1304'> +3.2907388e+11 </wgt>
<wgt id='1305'> +2.9834921e+11 </wgt>
<wgt id='1306'> +3.0640557e+11 </wgt>
<wgt id='1307'> +2.8625982e+11 </wgt>
<wgt id='1308'> +3.3208117e+11 </wgt>
<wgt id='1309'> +3.0195509e+11 </wgt>
<wgt id='1310'> +3.0409684e+11 </wgt>
<wgt id='1311'> +2.9738195e+11 </wgt>
<wgt id='1312'> +3.1700065e+11 </wgt>
<wgt id='1313'> +3.0534089e+11 </wgt>
<wgt id='1314'> +2.9269680e+11 </wgt>
<wgt id='1315'> +2.8806943e+11 </wgt>
<wgt id='1316'> +3.0008871e+11 </wgt>
<wgt id='1317'> +3.1466555e+11 </wgt>
<wgt id='1318'> +2.9177143e+11 </wgt>
<wgt id='1319'> +2.9698298e+11 </wgt>
<wgt id='1320'> +3.1878211e+11 </wgt>
<wgt id='1321'> +3.0392711e+11 </wgt>
<wgt id='1322'> +3.1379491e+11 </wgt>
<wgt id='1323'> +2.8773210e+11 </wgt>
<wgt id='1324'> +3.1007421e+11 </wgt>
<wgt id='1325'> +3.1350205e+11 </wgt>
<wgt id='1326'> +3.1022433e+11 </wgt>
<wgt id='1327'> +3.1536733e+11 </wgt>
<wgt id='1328'> +2.9867236e+11 </wgt>
<wgt id='1329'> +2.9788480e+11 </wgt>
<wgt id='1330'> +2.8442728e+11 </wgt>
<wgt id='1331'> +3.2406684e+11 </wgt>
<wgt id='1332'> +2.9947387e+11 </wgt>
<wgt id='1333'> +3.0248046e+11 </wgt>
<wgt id='1334'> +3.1954333e+11 </wgt>
<wgt id='1335'> +2.9197360e+11 </wgt>
<wgt id='1336'> +3.1870497e+11 </wgt>
<wgt id='1337'> +3.0971582e+11 </wgt>
<wgt id='1338'> +2.8691942e+11 </wgt>
<wgt id='1339'> +3.1381203e+11 </wgt>
<wgt id='1340'> +3.1152222e+11 </wgt>
<wgt id='1341'> +3.2772193e+11 </wgt>
<wgt id='1342'> +3.0116383e+11 </wgt>
<wgt id='1343'> +3.0915676e+11 </wgt>
<wgt id='1344'> +3.1887302e+11 </wgt>
<wgt id='1345'> +2.6107727e+11 </wgt>
<wgt id='1346'> +3.0527852e+11 </wgt>
<wgt id='1347'> +2.9423461e+11 </wgt>
<wgt id='1348'> +2.9108684e+11 </wgt>
<wgt id='1349'> +2.8832384e+11 </wgt>
<wgt id='1350'> +3.1176019e+11 </wgt>
<wgt id='1351'> +2.9076586e+11 </wgt>
<wgt id='1352'> +3.0473546e+11 </wgt>
<wgt id='1353'> +3.0200424e+11 </wgt>
<wgt id='1354'> +3.1101737e+11 </wgt>
<wgt id='1355'> +2.7936389e+11 </wgt>
<wgt id='1356'> +2.8193227e+11 </wgt>
<wgt id='1357'> +2.7994093e+11 </wgt>
<wgt id='1358'> +2.7789316e+11 </wgt>
<wgt id='1359'> +2.7833225e+11 </wgt>
<wgt id='1360'> +2.7468219e+11 </wgt>
<wgt id='1361'> +2.7795219e+11 </wgt>
<wgt id='1362'> +2.8728246e+11 </wgt>
<wgt id='1363'> +2.7787740e+11 </wgt>
<wgt id='1364'> +2.8485898e+11 </wgt>
<wgt id='1365'> +2.7727669e+11 </wgt>
<wgt id='1366'> +2.7557339e+11 </wgt>
<wgt id='1367'> +2.7868581e+11 </wgt>
<wgt id='1368'> +2.8011385e+11 </wgt>
<wgt id='1369'> +2.8267990e+11 </wgt>
<wgt id='1370'> +2.7569303e+11 </wgt>
<wgt id='1371'> +2.7960629e+11 </wgt>
<wgt id='1372'> +2.8001626e+11 </wgt>
<wgt id='1373'> +2.8274411e+11 </wgt>
<wgt id='1374'> +2.7283622e+11 </wgt>
<wgt id='1375'> +2.8081202e+11 </wgt>
<wgt id='1376'> +2.7841431e+11 </wgt>
<wgt id='1377'> +2.7977023e+11 </wgt>
<wgt id='1378'> +2.7999650e+11 </wgt>
<wgt id='1379'> +2.7775540e+11 </wgt>
<wgt id='1380'> +2.7680237e+11 </wgt>
<wgt id='1381'> +2.8367244e+11 </wgt>
<wgt id='1382'> +2.7793319e+11 </wgt>
<wgt id='1383'> +2.7654330e+11 </wgt>
<wgt id='1384'> +2.7482116e+11 </wgt>
<wgt id='1385'> +2.7433245e+11 </wgt>
<wgt id='1386'> +2.7708064e+11 </wgt>
<wgt id='1387'> +2.7751124e+11 </wgt>
<wgt id='1388'> +2.7473602e+11 </wgt>
<wgt id='1389'> +2.7794069e+11 </wgt>
<wgt id='1390'> +2.8196484e+11 </wgt>
<wgt id='1391'> +2.7852318e+11 </wgt>
<wgt id='1392'> +2.7534054e+11 </wgt>
<wgt id='1393'> +2.8071181e+11 </wgt>
<wgt id='1394'> +2.7858213e+11 </wgt>
<wgt id='1395'> +2.7421573e+11 </wgt>
<wgt id='1396'> +2.7969849e+11 </wgt>
<wgt id='1397'> +2.7992866e+11 </wgt>
<wgt id='1398'> +2.8311183e+11 </wgt>
<wgt id='1399'> +2.7741260e+11 </wgt>
<wgt id='1400'> +2.7411425e+11 </wgt>
<wgt id='1401'> +2.8022690e+11 </wgt>
<wgt id='1402'> +2.8177700e+11 </wgt>
<wgt id='1403'> +2.8808189e+11 </wgt>
<wgt id='1404'> +2.8274876e+11 </wgt>
<wgt id='1405'> +2.8662486e+11 </wgt>
<wgt id='1406'> +2.8258483e+11 </wgt>
<wgt id='1407'> +2.8012005e+11 </wgt>
<wgt id='1408'> +2.8641116e+11 </wgt>
<wgt id='1409'> +2.7443274e+11 </wgt>
<wgt id='1410'> +2.7170897e+11 </wgt>
<wgt id='1411'> +2.7909204e+11 </wgt>
<wgt id='1412'> +2.7833736e+11 </wgt>
<wgt id='1413'> +2.8141639e+11 </wgt>
<wgt id='1414'> +2.8190519e+11 </wgt>
<wgt id='1415'> +2.7942944e+11 </wgt>
<wgt id='1416'> +2.8064835e+11 </wgt>
<wgt id='1417'> +2.7692692e+11 </wgt>
<wgt id='1418'> +2.7846311e+11 </wgt>
<wgt id='1419'> +2.8280999e+11 </wgt>
<wgt id='1420'> +2.7485241e+11 </wgt>
<wgt id='1421'> +2.8601127e+11 </wgt>
<wgt id='1422'> +2.7233585e+11 </wgt>
<wgt id='1423'> +2.8340099e+11 </wgt>
<wgt id='1424'> +2.7990235e+11 </wgt>
<wgt id='1425'> +2.7980568e+11 </wgt>
<wgt id='1426'> +2.8155910e+11 </wgt>
<wgt id='1427'> +2.7799811e+11 </wgt>
<wgt id='1428'> +2.7779990e+11 </wgt>
<wgt id='1429'> +2.8007410e+11 </wgt>
<wgt id='1430'> +2.7592313e+11 </wgt>
<wgt id='1431'> +2.7543605e+11 </wgt>
<wgt id='1432'> +2.7634078e+11 </wgt>
<wgt id='1433'> +2.7516449e+11 </wgt>
<wgt id='1434'> +2.8651816e+11 </wgt>
<wgt id='1435'> +2.7857366e+11 </wgt>
<wgt id='1436'> +2.8327280e+11 </wgt>
<wgt id='1437'> +2.7817821e+11 </wgt>
<wgt id='1438'> +2.7905106e+11 </wgt>
<wgt id='1439'> +2.8545577e+11 </wgt>
<wgt id='1440'> +2.8050596e+11 </wgt>
<wgt id='1441'> +2.7562495e+11 </wgt>
<wgt id='1442'> +2.8249769e+11 </wgt>
<wgt id='1443'> +2.7598220e+11 </wgt>
<wgt id='1444'> +2.8448346e+11 </wgt>
<wgt id='1445'> +2.7891414e+11 </wgt>
<wgt id='1446'> +2.8708616e+11 </wgt>
<wgt id='1447'> +2.7854999e+11 </wgt>
<wgt id='1448'> +2.8195522e+11 </wgt>
<wgt id='1449'> +2.8246055e+11 </wgt>
<wgt id='1450'> +2.7874261e+11 </wgt>
<wgt id='1451'> +2.7988932e+11 </wgt>
<wgt id='1452'> +2.8146217e+11 </wgt>
<wgt id='1453'> +2.8060836e+11 </wgt>
<wgt id='1454'> +2.7075389e+11 </wgt>
<wgt id='1455'> +2.7785663e+11 </wgt>
<wgt id='1456'> +2.7793062e+11 </wgt>
<wgt id='1457'> +2.7886186e+11 </wgt>
<wgt id='1458'> +2.8539563e+11 </wgt>
<wgt id='1459'> +3.1183920e+11 </wgt>
<wgt id='1460'> +3.0668301e+11 </wgt>
<wgt id='1461'> +3.6525190e+11 </wgt>
<wgt id='1462'> +3.0076501e+11 </wgt>
<wgt id='1463'> +3.0098783e+11 </wgt>
<wgt id='1464'> +3.0047922e+11 </wgt>
<wgt id='1465'> +3.0083199e+11 </wgt>
<wgt id='1466'> +3.0070383e+11 </wgt>
<wgt id='1467'> +3.0088290e+11 </wgt>
<wgt id='1468'> +3.0057155e+11 </wgt>
<wgt id='1469'> +3.0033244e+11 </wgt>
<wgt id='1470'> +3.0111631e+11 </wgt>
<wgt id='1471'> +3.0121542e+11 </wgt>
<wgt id='1472'> +3.0030106e+11 </wgt>
<wgt id='1473'> +3.0195846e+11 </wgt>
<wgt id='1474'> +2.9961867e+11 </wgt>
<wgt id='1475'> +3.0189595e+11 </wgt>
<wgt id='1476'> +2.9996331e+11 </wgt>
<wgt id='1477'> +3.0021680e+11 </wgt>
<wgt id='1478'> +3.0204580e+11 </wgt>
<wgt id='1479'> +3.0041451e+11 </wgt>
<wgt id='1480'> +3.0101405e+11 </wgt>
<wgt id='1481'> +3.0022607e+11 </wgt>
<wgt id='1482'> +3.0149386e+11 </wgt>
<wgt id='1483'> +3.0082904e+11 </wgt>
<wgt id='1484'> +3.0067724e+11 </wgt>
<wgt id='1485'> +3.0097535e+11 </wgt>
<wgt id='1486'> +3.0025837e+11 </wgt>
<wgt id='1487'> +3.0104798e+11 </wgt>
<wgt id='1488'> +3.0041175e+11 </wgt>
<wgt id='1489'> +3.0039205e+11 </wgt>
<wgt id='1490'> +3.0177647e+11 </wgt>
<wgt id='1491'> +3.0578160e+11 </wgt>
<wgt id='1492'> +2.9796969e+11 </wgt>
<wgt id='1493'> +2.9711448e+11 </wgt>
<wgt id='1494'> +3.1221479e+11 </wgt>
<wgt id='1495'> +2.9995979e+11 </wgt>
<wgt id='1496'> +3.0162967e+11 </wgt>
<wgt id='1497'> +3.0097226e+11 </wgt>
<wgt id='1498'> +3.0048195e+11 </wgt>
<wgt id='1499'> +3.0282591e+11 </wgt>
<wgt id='1500'> +2.9963952e+11 </wgt>
<wgt id='1501'> +3.0113256e+11 </wgt>
<wgt id='1502'> +2.9979632e+11 </wgt>
<wgt id='1503'> +2.9670304e+11 </wgt>
<wgt id='1504'> +3.0527283e+11 </wgt>
<wgt id='1505'> +3.0150129e+11 </wgt>
<wgt id='1506'> +3.0004045e+11 </wgt>
<wgt id='1507'> +3.0374849e+11 </wgt>
<wgt id='1508'> +2.9627041e+11 </wgt>
<wgt id='1509'> +3.0151584e+11 </wgt>
<wgt id='1510'> +2.9752975e+11 </wgt>
<wgt id='1511'> +3.0198476e+11 </wgt>
<wgt id='1512'> +3.0039543e+11 </wgt>
<wgt id='1513'> +3.0061185e+11 </wgt>
<wgt id='1514'> +3.0094647e+11 </wgt>
<wgt id='1515'> +3.0428270e+11 </wgt>
<wgt id='1516'> +3.0049723e+11 </wgt>
<wgt id='1517'> +3.0026570e+11 </wgt>
<wgt id='1518'> +3.0140991e+11 </wgt>
<wgt id='1519'> +2.9883073e+11 </wgt>
<wgt id='1520'> +3.0213600e+11 </wgt>
<wgt id='1521'> +2.9961055e+11 </wgt>
<wgt id='1522'> +3.0142063e+11 </wgt>
<wgt id='1523'> +3.0196535e+11 </wgt>
<wgt id='1524'> +3.0238754e+11 </wgt>
<wgt id='1525'> +3.0156901e+11 </wgt>
<wgt id='1526'> +3.0213330e+11 </wgt>
<wgt id='1527'> +3.0076501e+11 </wgt>
<wgt id='1528'> +2.9981306e+11 </wgt>
<wgt id='1529'> +3.0138937e+11 </wgt>
<wgt id='1530'> +2.9677851e+11 </wgt>
<wgt id='1531'> +3.0285475e+11 </wgt>
<wgt id='1532'> +3.0193767e+11 </wgt>
<wgt id='1533'> +2.9748608e+11 </wgt>
<wgt id='1534'> +3.0125549e+11 </wgt>
<wgt id='1535'> +3.0597552e+11 </wgt>
<wgt id='1536'> +2.9970691e+11 </wgt>
<wgt id='1537'> +3.0416727e+11 </wgt>
<wgt id='1538'> +2.9902863e+11 </wgt>
<wgt id='1539'> +3.0808772e+11 </wgt>
<wgt id='1540'> +3.0369391e+11 </wgt>
<wgt id='1541'> +3.0432365e+11 </wgt>
<wgt id='1542'> +3.0295828e+11 </wgt>
<wgt id='1543'> +3.0454576e+11 </wgt>
<wgt id='1544'> +3.0116558e+11 </wgt>
<wgt id='1545'> +3.0082670e+11 </wgt>
<wgt id='1546'> +2.9903321e+11 </wgt>
<wgt id='1547'> +3.0515712e+11 </wgt>
<wgt id='1548'> +3.0152184e+11 </wgt>
<wgt id='1549'> +2.9933947e+11 </wgt>
<wgt id='1550'> +3.0475526e+11 </wgt>
<wgt id='1551'> +3.0346796e+11 </wgt>
<wgt id='1552'> +3.0285624e+11 </wgt>
<wgt id='1553'> +3.0706400e+11 </wgt>
<wgt id='1554'> +3.0300875e+11 </wgt>
<wgt id='1555'> +3.0379379e+11 </wgt>
<wgt id='1556'> +3.0495104e+11 </wgt>
<wgt id='1557'> +3.0242746e+11 </wgt>
<wgt id='1558'> +3.0318966e+11 </wgt>
<wgt id='1559'> +3.0026369e+11 </wgt>
<wgt id='1560'> +3.0169035e+11 </wgt>
<wgt id='1561'> +3.0057970e+11 </wgt>
<wgt id='1562'> +3.0118414e+11 </wgt>
<wgt id='1563'> +3.0309373e+11 </wgt>
<wgt id='1564'> +3.0254560e+11 </wgt>
<wgt id='1565'> +3.0559323e+11 </wgt>
<wgt id='1566'> +3.0287312e+11 </wgt>
<wgt id='1567'> +3.0463191e+11 </wgt>
<wgt id='1568'> +3.0271718e+11 </wgt>
<wgt id='1569'> +3.0227664e+11 </wgt>
<wgt id='1570'> +3.0915423e+11 </wgt>
<wgt id='1571'> +3.0290651e+11 </wgt>
<wgt id='1572'> +3.0470193e+11 </wgt>
<wgt id='1573'> +3.0689096e+11 </wgt>
<wgt id='1574'> +2.5661686e+11 </wgt>
<wgt id='1575'> +2.5668453e+11 </wgt>
<wgt id='1576'> +2.5654837e+11 </wgt>
<wgt id='1577'> +2.5663489e+11 </wgt>
<wgt id='1578'> +2.5720824e+11 </wgt>
<wgt id='1579'> +2.5742172e+11 </wgt>
<wgt id='1580'> +2.5718843e+11 </wgt>
<wgt id='1581'> +2.5612076e+11 </wgt>
<wgt id='1582'> +2.5584768e+11 </wgt>
<wgt id='1583'> +2.5615557e+11 </wgt>
<wgt id='1584'> +2.5718441e+11 </wgt>
<wgt id='1585'> +2.5685830e+11 </wgt>
<wgt id='1586'> +2.5578570e+11 </wgt>
<wgt id='1587'> +2.5594919e+11 </wgt>
<wgt id='1588'> +2.5549898e+11 </wgt>
<wgt id='1589'> +2.5630360e+11 </wgt>
<wgt id='1590'> +2.5646227e+11 </wgt>
<wgt id='1591'> +2.5669609e+11 </wgt>
<wgt id='1592'> +2.5563096e+11 </wgt>
<wgt id='1593'> +2.5555177e+11 </wgt>
<wgt id='1594'> +2.5764737e+11 </wgt>
<wgt id='1595'> +2.5411518e+11 </wgt>
<wgt id='1596'> +2.6079244e+11 </wgt>
<wgt id='1597'> +2.5842868e+11 </wgt>
<wgt id='1598'> +2.5856440e+11 </wgt>
<wgt id='1599'> +2.5362838e+11 </wgt>
<wgt id='1600'> +2.6147791e+11 </wgt>
<wgt id='1601'> +2.5877530e+11 </wgt>
<wgt id='1602'> +2.5666912e+11 </wgt>
<wgt id='1603'> +2.7018764e+11 </wgt>
<wgt id='1604'> +2.5675878e+11 </wgt>
</rwgt>
</event>
<event>
 9      1 +2.8343000e+11 1.40000400e+03 7.81738600e-03 7.88880900e-02
       21 -1    0    0  504  503 +0.0000000000e+00 +0.0000000000e+00 +3.7521730496e+02 3.7521730496e+02 0.0000000000e+00 0.0000e+00 -1.0000e+00
       21 -1    0    0  503  504 -0.0000000000e+00 -0.0000000000e+00 -1.3059181196e+03 1.3059181196e+03 0.0000000000e+00 0.0000e+00 -1.0000e+00
       45  2    1    2    0    0 +0.0000000000e+00 -3.5527136788e-15 -9.3070081466e+02 1.6811354246e+03 1.4000043962e+03 0.0000e+00 0.0000e+00
       25  2    3    3    0    0 -5.9002698883e+02 +1.9117649271e+01 -3.4760542706e+01 6.0442454832e+02 1.2499362871e+02 0.0000e+00 0.0000e+00
       35  2    3    3    0    0 +5.9002698883e+02 -1.9117649271e+01 -8.9594027195e+02 1.0767108763e+03 9.0000044956e+01 0.0000e+00 0.0000e+00
        5  1    5    5  501    0 +3.9055666412e+02 -4.9300176459e+01 -5.5313885368e+02 6.7892957258e+02 4.2140000000e+00 0.0000e+00 1.0000e+00
       -5  1    5    5    0  501 +1.9947032472e+02 +3.0182527187e+01 -3.4280141827e+02 3.9778130368e+02 4.2140000000e+00 0.0000e+00 1.0000e+00
        5  1    4    4  502    0 -2.8893765616e+02 +2.3079148839e+01 +4.3855603890e+01 2.9318712122e+02 4.2140000000e+00 0.0000e+00 -1.0000e+00
       -5  1    4    4    0  502 -3.0108933267e+02 -3.9614995680e+00 -7.8616146596e+01 3.1123742710e+02 4.2140000000e+00 0.0000e+00 -1.0000e+00
<mgrwt>
<rscale>  0 0.14000044E+04</rscale>
<asrwt>0</asrwt>
<pdfrwt beam="1">  1       21 0.57725740E-01 0.14000044E+04</pdfrwt>
<pdfrwt beam="2">  1       21 0.20091048E+00 0.14000044E+04</pdfrwt>
<totfact> 0.25298520E+02</totfact>
</mgrwt>
<rwgt>
<wgt id='1001'> +2.8343000e+11 </wgt>
<wgt id='1002'> +2.9132103e+11 </wgt>
<wgt id='1003'> +2.9131897e+11 </wgt>
<wgt id='1004'> +3.2853031e+11 </wgt>
<wgt id='1005'> +2.8343000e+11 </wgt>
<wgt id='1006'> +2.8343000e+11 </wgt>
<wgt id='1007'> +2.9132103e+11 </wgt>
<wgt id='1008'> +2.9131897e+11 </wgt>
<wgt id='1009'> +3.2853031e+11 </wgt>
<wgt id='1010'> +2.8343000e+11 </wgt>
<wgt id='1011'> +2.8343000e+11 </wgt>
<wgt id='1012'> +2.9132103e+11 </wgt>
<wgt id='1013'> +2.9131897e+11 </wgt>
<wgt id='1014'> +3.2853031e+11 </wgt>
<wgt id='1015'> +2.8343000e+11 </wgt>
<wgt id='1016'> +2.5368575e+11 </wgt>
<wgt id='1017'> +2.6032717e+11 </wgt>
<wgt id='1018'> +2.6032543e+11 </wgt>
<wgt id='1019'> +2.9131897e+11 </wgt>
<wgt id='1020'> +2.5368575e+11 </wgt>
<wgt id='1021'> +2.5368575e+11 </wgt>
<wgt id='1022'> +2.6032717e+11 </wgt>
<wgt id='1023'> +2.6032543e+11 </wgt>
<wgt id='1024'> +2.9131897e+11 </wgt>
<wgt id='1025'> +2.5368575e+11 </wgt>
<wgt id='1026'> +2.5368575e+11 </wgt>
<wgt id='1027'> +2.6032717e+11 </wgt>
<wgt id='1028'> +2.6032543e+11 </wgt>
<wgt id='1029'> +2.9131897e+11 </wgt>
<wgt id='1030'> +2.5368575e+11 </wgt>
<wgt id='1031'> +3.1902033e+11 </wgt>
<wgt id='1032'> +3.2853280e+11 </wgt>
<wgt id='1033'> +3.2853031e+11 </wgt>
<wgt id='1034'> +3.7361114e+11 </wgt>
<wgt id='1035'> +3.1902033e+11 </wgt>
<wgt id='1036'> +3.1902033e+11 </wgt>
<wgt id='1037'> +3.2853280e+11 </wgt>
<wgt id='1038'> +3.2853031e+11 </wgt>
<wgt id='1039'> +3.7361114e+11 </wgt>
<wgt id='1040'> +3.1902033e+11 </wgt>
<wgt id='1041'> +3.1902033e+11 </wgt>
<wgt id='1042'> +3.2853280e+11 </wgt>
<wgt id='1043'> +3.2853031e+11 </wgt>
<wgt id='1044'> +3.7361114e+11 </wgt>
<wgt id='1045'> +3.1902033e+11 </wgt>
<wgt id='1046'> +2.8343000e+11 </wgt>
<wgt id='1047'> +2.8343000e+11 </wgt>
<wgt id='1048'> +2.8343000e+11 </wgt>
<wgt id='1049'> +2.8297153e+11 </wgt>
<wgt id='1050'> +2.8320415e+11 </wgt>
<wgt id='1051'> +2.8334129e+11 </wgt>
<wgt id='1052'> +2.8421939e+11 </wgt>
<wgt id='1053'> +2.8160115e+11 </wgt>
<wgt id='1054'> +2.8377458e+11 </wgt>
<wgt id='1055'> +2.8214233e+11 </wgt>
<wgt id='1056'> +2.8212680e+11 </wgt>
<wgt id='1057'> +2.8293294e+11 </wgt>
<wgt id='1058'> +2.8265260e+11 </wgt>
<wgt id='1059'> +2.8543720e+11 </wgt>
<wgt id='1060'> +2.8375824e+11 </wgt>
<wgt id='1061'> +2.8396835e+11 </wgt>
<wgt id='1062'> +2.8429770e+11 </wgt>
<wgt id='1063'> +2.8467983e+11 </wgt>
<wgt id='1064'> +2.8406258e+11 </wgt>
<wgt id='1065'> +2.8476371e+11 </wgt>
<wgt id='1066'> +2.8142205e+11 </wgt>
<wgt id='1067'> +2.8227759e+11 </wgt>
<wgt id='1068'> +2.8373025e+11 </wgt>
<wgt id='1069'> +2.8254989e+11 </wgt>
<wgt id='1070'> +2.8406817e+11 </wgt>
<wgt id='1071'> +2.8269234e+11 </wgt>
<wgt id='1072'> +2.8332126e+11 </wgt>
<wgt id='1073'> +2.8257893e+11 </wgt>
<wgt id='1074'> +2.8266070e+11 </wgt>
<wgt id='1075'> +2.8405613e+11 </wgt>
<wgt id='1076'> +2.8157687e+11 </wgt>
<wgt id='1077'> +2.8202314e+11 </wgt>
<wgt id='1078'> +2.8411930e+11 </wgt>
<wgt id='1079'> +2.8221876e+11 </wgt>
<wgt id='1080'> +2.8308103e+11 </wgt>
<wgt id='1081'> +2.8299723e+11 </wgt>
<wgt id='1082'> +2.8227108e+11 </wgt>
<wgt id='1083'> +2.8437630e+11 </wgt>
<wgt id='1084'> +2.8400166e+11 </wgt>
<wgt id='1085'> +2.8270285e+11 </wgt>
<wgt id='1086'> +2.8335483e+11 </wgt>
<wgt id='1087'> +2.8339800e+11 </wgt>
<wgt id='1088'> +2.8295503e+11 </wgt>
<wgt id='1089'> +2.8249817e+11 </wgt>
<wgt id='1090'> +2.8403088e+11 </wgt>
<wgt id='1091'> +2.8359309e+11 </wgt>
<wgt id='1092'> +2.8363693e+11 </wgt>
<wgt id='1093'> +2.8349629e+11 </wgt>
<wgt id='1094'> +2.8232171e+11 </wgt>
<wgt id='1095'> +2.8366028e+11 </wgt>
<wgt id='1096'> +2.8341427e+11 </wgt>
<wgt id='1097'> +2.8285449e+11 </wgt>
<wgt id='1098'> +2.8319307e+11 </wgt>
<wgt id='1099'> +2.8322987e+11 </wgt>
<wgt id='1100'> +2.8403961e+11 </wgt>
<wgt id='1101'> +2.8350162e+11 </wgt>
<wgt id='1102'> +2.8334187e+11 </wgt>
<wgt id='1103'> +2.8275140e+11 </wgt>
<wgt id='1104'> +2.8327170e+11 </wgt>
<wgt id='1105'> +2.8351201e+11 </wgt>
<wgt id='1106'> +2.8378008e+11 </wgt>
<wgt id='1107'> +2.8363642e+11 </wgt>
<wgt id='1108'> +2.8322089e+11 </wgt>
<wgt id='1109'> +2.8327897e+11 </wgt>
<wgt id='1110'> +2.8365419e+11 </wgt>
<wgt id='1111'> +2.8367730e+11 </wgt>
<wgt id='1112'> +2.8334382e+11 </wgt>
<wgt id='1113'> +2.8377274e+11 </wgt>
<wgt id='1114'> +2.8314100e+11 </wgt>
<wgt id='1115'> +2.8300069e+11 </wgt>
<wgt id='1116'> +2.8407582e+11 </wgt>
<wgt id='1117'> +2.8335845e+11 </wgt>
<wgt id='1118'> +2.8373229e+11 </wgt>
<wgt id='1119'> +2.8304764e+11 </wgt>
<wgt id='1120'> +2.8308598e+11 </wgt>
<wgt id='1121'> +2.8350379e+11 </wgt>
<wgt id='1122'> +2.8308507e+11 </wgt>
<wgt id='1123'> +2.8337579e+11 </wgt>
<wgt id='1124'> +2.8346821e+11 </wgt>
<wgt id='1125'> +2.8362983e+11 </wgt>
<wgt id='1126'> +2.8355486e+11 </wgt>
<wgt id='1127'> +2.8328279e+11 </wgt>
<wgt id='1128'> +2.8338278e+11 </wgt>
<wgt id='1129'> +2.8326954e+11 </wgt>
<wgt id='1130'> +2.8346034e+11 </wgt>
<wgt id='1131'> +2.8393781e+11 </wgt>
<wgt id='1132'> +2.8332423e+11 </wgt>
<wgt id='1133'> +2.8356773e+11 </wgt>
<wgt id='1134'> +2.8340870e+11 </wgt>
<wgt id='1135'> +2.8346255e+11 </wgt>
<wgt id='1136'> +2.8332018e+11 </wgt>
<wgt id='1137'> +2.8321363e+11 </wgt>
<wgt id='1138'> +2.8357823e+11 </wgt>
<wgt id='1139'> +2.8352720e+11 </wgt>
<wgt id='1140'> +2.8370024e+11 </wgt>
<wgt id='1141'> +2.8318452e+11 </wgt>
<wgt id='1142'> +2.8348424e+11 </wgt>
<wgt id='1143'> +2.8362476e+11 </wgt>
<wgt id='1144'> +2.8332689e+11 </wgt>
<wgt id='1145'> +2.8358829e+11 </wgt>
<wgt id='1146'> +2.8349508e+11 </wgt>
<wgt id='1147'> +2.8348922e+11 </wgt>
<wgt id='1148'> +2.8343000e+11 </wgt>
<wgt id='1149'> +2.8343000e+11 </wgt>
<wgt id='1150'> +2.9694738e+11 </wgt>
<wgt id='1151'> +2.7652080e+11 </wgt>
<wgt id='1152'> +2.7360409e+11 </wgt>
<wgt id='1153'> +2.8563783e+11 </wgt>
<wgt id='1154'> +2.8016796e+11 </wgt>
<wgt id='1155'> +2.9541667e+11 </wgt>
<wgt id='1156'> +2.7918690e+11 </wgt>
<wgt id='1157'> +2.7526602e+11 </wgt>
<wgt id='1158'> +2.7702959e+11 </wgt>
<wgt id='1159'> +2.9826796e+11 </wgt>
<wgt id='1160'> +2.8567558e+11 </wgt>
<wgt id='1161'> +2.9085606e+11 </wgt>
<wgt id='1162'> +2.8639763e+11 </wgt>
<wgt id='1163'> +2.8691022e+11 </wgt>
<wgt id='1164'> +2.7421692e+11 </wgt>
<wgt id='1165'> +2.7777992e+11 </wgt>
<wgt id='1166'> +2.8322307e+11 </wgt>
<wgt id='1167'> +2.7817053e+11 </wgt>
<wgt id='1168'> +2.7365131e+11 </wgt>
<wgt id='1169'> +2.7620714e+11 </wgt>
<wgt id='1170'> +2.8467056e+11 </wgt>
<wgt id='1171'> +2.7337671e+11 </wgt>
<wgt id='1172'> +2.7369584e+11 </wgt>
<wgt id='1173'> +2.8574327e+11 </wgt>
<wgt id='1174'> +2.7671939e+11 </wgt>
<wgt id='1175'> +2.7891151e+11 </wgt>
<wgt id='1176'> +2.8734974e+11 </wgt>
<wgt id='1177'> +2.7883925e+11 </wgt>
<wgt id='1178'> +2.8510512e+11 </wgt>
<wgt id='1179'> +2.8594062e+11 </wgt>
<wgt id='1180'> +2.8013274e+11 </wgt>
<wgt id='1181'> +2.9374784e+11 </wgt>
<wgt id='1182'> +2.8060953e+11 </wgt>
<wgt id='1183'> +2.8877031e+11 </wgt>
<wgt id='1184'> +2.7837074e+11 </wgt>
<wgt id='1185'> +2.8937531e+11 </wgt>
<wgt id='1186'> +2.7852637e+11 </wgt>
<wgt id='1187'> +2.8492565e+11 </wgt>
<wgt id='1188'> +2.9036540e+11 </wgt>
<wgt id='1189'> +2.8175876e+11 </wgt>
<wgt id='1190'> +2.8025588e+11 </wgt>
<wgt id='1191'> +2.9029927e+11 </wgt>
<wgt id='1192'> +2.8781874e+11 </wgt>
<wgt id='1193'> +2.8933760e+11 </wgt>
<wgt id='1194'> +2.7872070e+11 </wgt>
<wgt id='1195'> +2.8646599e+11 </wgt>
<wgt id='1196'> +2.9110124e+11 </wgt>
<wgt id='1197'> +2.9055576e+11 </wgt>
<wgt id='1198'> +2.8683905e+11 </wgt>
<wgt id='1199'> +2.8747677e+11 </wgt>
<wgt id='1200'> +2.9029529e+11 </wgt>
<wgt id='1201'> +2.8193285e+11 </wgt>
<wgt id='1202'> +2.8525726e+11 </wgt>
<wgt id='1203'> +2.8409522e+11 </wgt>
<wgt id='1204'> +2.8061440e+11 </wgt>
<wgt id='1205'> +2.8463549e+11 </wgt>
<wgt id='1206'> +2.8081254e+11 </wgt>
<wgt id='1207'> +2.9130479e+11 </wgt>
<wgt id='1208'> +2.7087477e+11 </wgt>
<wgt id='1209'> +2.8497600e+11 </wgt>
<wgt id='1210'> +2.8723196e+11 </wgt>
<wgt id='1211'> +2.8171263e+11 </wgt>
<wgt id='1212'> +2.8300228e+11 </wgt>
<wgt id='1213'> +2.8678957e+11 </wgt>
<wgt id='1214'> +2.7894953e+11 </wgt>
<wgt id='1215'> +2.8028263e+11 </wgt>
<wgt id='1216'> +2.7715051e+11 </wgt>
<wgt id='1217'> +2.8024662e+11 </wgt>
<wgt id='1218'> +2.8508432e+11 </wgt>
<wgt id='1219'> +2.9346749e+11 </wgt>
<wgt id='1220'> +2.8073810e+11 </wgt>
<wgt id='1221'> +2.7698395e+11 </wgt>
<wgt id='1222'> +2.7872650e+11 </wgt>
<wgt id='1223'> +2.7384291e+11 </wgt>
<wgt id='1224'> +2.8231302e+11 </wgt>
<wgt id='1225'> +2.8400908e+11 </wgt>
<wgt id='1226'> +2.8548778e+11 </wgt>
<wgt id='1227'> +2.8118689e+11 </wgt>
<wgt id='1228'> +2.8250545e+11 </wgt>
<wgt id='1229'> +2.9997453e+11 </wgt>
<wgt id='1230'> +2.8821252e+11 </wgt>
<wgt id='1231'> +2.7777992e+11 </wgt>
<wgt id='1232'> +2.8771916e+11 </wgt>
<wgt id='1233'> +2.7651284e+11 </wgt>
<wgt id='1234'> +2.7852173e+11 </wgt>
<wgt id='1235'> +3.0009727e+11 </wgt>
<wgt id='1236'> +2.7902962e+11 </wgt>
<wgt id='1237'> +2.9030603e+11 </wgt>
<wgt id='1238'> +2.7994104e+11 </wgt>
<wgt id='1239'> +2.8612800e+11 </wgt>
<wgt id='1240'> +2.7569542e+11 </wgt>
<wgt id='1241'> +2.8837989e+11 </wgt>
<wgt id='1242'> +2.8057795e+11 </wgt>
<wgt id='1243'> +2.8424187e+11 </wgt>
<wgt id='1244'> +2.9040248e+11 </wgt>
<wgt id='1245'> +2.7596115e+11 </wgt>
<wgt id='1246'> +3.0387083e+11 </wgt>
<wgt id='1247'> +2.8135761e+11 </wgt>
<wgt id='1248'> +2.7331492e+11 </wgt>
<wgt id='1249'> +2.7548735e+11 </wgt>
<wgt id='1250'> +2.9404445e+11 </wgt>
<wgt id='1251'> +3.0246019e+11 </wgt>
<wgt id='1252'> +2.8836198e+11 </wgt>
<wgt id='1253'> +2.9347833e+11 </wgt>
<wgt id='1254'> +2.8991530e+11 </wgt>
<wgt id='1255'> +3.0462371e+11 </wgt>
<wgt id='1256'> +3.0446093e+11 </wgt>
<wgt id='1257'> +3.0146770e+11 </wgt>
<wgt id='1258'> +2.9232040e+11 </wgt>
<wgt id='1259'> +3.0615411e+11 </wgt>
<wgt id='1260'> +3.2916141e+11 </wgt>
<wgt id='1261'> +3.1574429e+11 </wgt>
<wgt id='1262'> +2.9512761e+11 </wgt>
<wgt id='1263'> +3.0008202e+11 </wgt>
<wgt id='1264'> +3.0294023e+11 </wgt>
<wgt id='1265'> +2.9305274e+11 </wgt>
<wgt id='1266'> +3.0499379e+11 </wgt>
<wgt id='1267'> +3.5012592e+11 </wgt>
<wgt id='1268'> +2.8870846e+11 </wgt>
<wgt id='1269'> +2.8666222e+11 </wgt>
<wgt id='1270'> +3.0641164e+11 </wgt>
<wgt id='1271'> +2.6591899e+11 </wgt>
<wgt id='1272'> +2.9382216e+11 </wgt>
<wgt id='1273'> +2.9092143e+11 </wgt>
<wgt id='1274'> +2.8706916e+11 </wgt>
<wgt id='1275'> +2.9336578e+11 </wgt>
<wgt id='1276'> +3.0446512e+11 </wgt>
<wgt id='1277'> +2.9971057e+11 </wgt>
<wgt id='1278'> +3.0010571e+11 </wgt>
<wgt id='1279'> +2.7928370e+11 </wgt>
<wgt id='1280'> +2.8585601e+11 </wgt>
<wgt id='1281'> +2.8525063e+11 </wgt>
<wgt id='1282'> +2.9491301e+11 </wgt>
<wgt id='1283'> +3.1228239e+11 </wgt>
<wgt id='1284'> +3.0766424e+11 </wgt>
<wgt id='1285'> +3.0808828e+11 </wgt>
<wgt id='1286'> +3.3155439e+11 </wgt>
<wgt id='1287'> +3.1224724e+11 </wgt>
<wgt id='1288'> +3.3773855e+11 </wgt>
<wgt id='1289'> +3.1596912e+11 </wgt>
<wgt id='1290'> +3.1315866e+11 </wgt>
<wgt id='1291'> +2.7884725e+11 </wgt>
<wgt id='1292'> +3.0411007e+11 </wgt>
<wgt id='1293'> +3.0371845e+11 </wgt>
<wgt id='1294'> +3.2614597e+11 </wgt>
<wgt id='1295'> +3.1102763e+11 </wgt>
<wgt id='1296'> +3.3210268e+11 </wgt>
<wgt id='1297'> +2.8991995e+11 </wgt>
<wgt id='1298'> +2.8952662e+11 </wgt>
<wgt id='1299'> +3.0497074e+11 </wgt>
<wgt id='1300'> +2.8137854e+11 </wgt>
<wgt id='1301'> +2.7977041e+11 </wgt>
<wgt id='1302'> +2.8210316e+11 </wgt>
<wgt id='1303'> +3.0467284e+11 </wgt>
<wgt id='1304'> +3.2877696e+11 </wgt>
<wgt id='1305'> +2.9832780e+11 </wgt>
<wgt id='1306'> +3.0635914e+11 </wgt>
<wgt id='1307'> +2.8640913e+11 </wgt>
<wgt id='1308'> +3.3195943e+11 </wgt>
<wgt id='1309'> +3.0183756e+11 </wgt>
<wgt id='1310'> +3.0402758e+11 </wgt>
<wgt id='1311'> +2.9745595e+11 </wgt>
<wgt id='1312'> +3.1670573e+11 </wgt>
<wgt id='1313'> +3.0519261e+11 </wgt>
<wgt id='1314'> +2.9279709e+11 </wgt>
<wgt id='1315'> +2.8801772e+11 </wgt>
<wgt id='1316'> +3.0004838e+11 </wgt>
<wgt id='1317'> +3.1442475e+11 </wgt>
<wgt id='1318'> +2.9172096e+11 </wgt>
<wgt id='1319'> +2.9694494e+11 </wgt>
<wgt id='1320'> +3.1864474e+11 </wgt>
<wgt id='1321'> +3.0375639e+11 </wgt>
<wgt id='1322'> +3.1350996e+11 </wgt>
<wgt id='1323'> +2.8784506e+11 </wgt>
<wgt id='1324'> +3.0990462e+11 </wgt>
<wgt id='1325'> +3.1342673e+11 </wgt>
<wgt id='1326'> +3.1012497e+11 </wgt>
<wgt id='1327'> +3.1513591e+11 </wgt>
<wgt id='1328'> +2.9858843e+11 </wgt>
<wgt id='1329'> +2.9786175e+11 </wgt>
<wgt id='1330'> +2.8446556e+11 </wgt>
<wgt id='1331'> +3.2396739e+11 </wgt>
<wgt id='1332'> +2.9927419e+11 </wgt>
<wgt id='1333'> +3.0243527e+11 </wgt>
<wgt id='1334'> +3.1939322e+11 </wgt>
<wgt id='1335'> +2.9198446e+11 </wgt>
<wgt id='1336'> +3.1846998e+11 </wgt>
<wgt id='1337'> +3.0965803e+11 </wgt>
<wgt id='1338'> +2.8692914e+11 </wgt>
<wgt id='1339'> +3.1387143e+11 </wgt>
<wgt id='1340'> +3.1129786e+11 </wgt>
<wgt id='1341'> +3.2735457e+11 </wgt>
<wgt id='1342'> +3.0128364e+11 </wgt>
<wgt id='1343'> +3.0911855e+11 </wgt>
<wgt id='1344'> +3.1869014e+11 </wgt>
<wgt id='1345'> +2.6127006e+11 </wgt>
<wgt id='1346'> +3.0519342e+11 </wgt>
<wgt id='1347'> +2.9409750e+11 </wgt>
<wgt id='1348'> +2.9101740e+11 </wgt>
<wgt id='1349'> +2.8825409e+11 </wgt>
<wgt id='1350'> +3.1154464e+11 </wgt>
<wgt id='1351'> +2.9079015e+11 </wgt>
<wgt id='1352'> +3.0464941e+11 </wgt>
<wgt id='1353'> +3.0190000e+11 </wgt>
<wgt id='1354'> +3.1092069e+11 </wgt>
<wgt id='1355'> +2.7929578e+11 </wgt>
<wgt id='1356'> +2.8186729e+11 </wgt>
<wgt id='1357'> +2.7986133e+11 </wgt>
<wgt id='1358'> +2.7781628e+11 </wgt>
<wgt id='1359'> +2.7828785e+11 </wgt>
<wgt id='1360'> +2.7460184e+11 </wgt>
<wgt id='1361'> +2.7789621e+11 </wgt>
<wgt id='1362'> +2.8716886e+11 </wgt>
<wgt id='1363'> +2.7776177e+11 </wgt>
<wgt id='1364'> +2.8476117e+11 </wgt>
<wgt id='1365'> +2.7720730e+11 </wgt>
<wgt id='1366'> +2.7552299e+11 </wgt>
<wgt id='1367'> +2.7864881e+11 </wgt>
<wgt id='1368'> +2.8003215e+11 </wgt>
<wgt id='1369'> +2.8260396e+11 </wgt>
<wgt id='1370'> +2.7566563e+11 </wgt>
<wgt id='1371'> +2.7954449e+11 </wgt>
<wgt id='1372'> +2.8000242e+11 </wgt>
<wgt id='1373'> +2.8266534e+11 </wgt>
<wgt id='1374'> +2.7273102e+11 </wgt>
<wgt id='1375'> +2.8072399e+11 </wgt>
<wgt id='1376'> +2.7835339e+11 </wgt>
<wgt id='1377'> +2.7971195e+11 </wgt>
<wgt id='1378'> +2.7987339e+11 </wgt>
<wgt id='1379'> +2.7769137e+11 </wgt>
<wgt id='1380'> +2.7673697e+11 </wgt>
<wgt id='1381'> +2.8361842e+11 </wgt>
<wgt id='1382'> +2.7788229e+11 </wgt>
<wgt id='1383'> +2.7649771e+11 </wgt>
<wgt id='1384'> +2.7479213e+11 </wgt>
<wgt id='1385'> +2.7429719e+11 </wgt>
<wgt id='1386'> +2.7705346e+11 </wgt>
<wgt id='1387'> +2.7744397e+11 </wgt>
<wgt id='1388'> +2.7466473e+11 </wgt>
<wgt id='1389'> +2.7788927e+11 </wgt>
<wgt id='1390'> +2.8186818e+11 </wgt>
<wgt id='1391'> +2.7842070e+11 </wgt>
<wgt id='1392'> +2.7531034e+11 </wgt>
<wgt id='1393'> +2.8060850e+11 </wgt>
<wgt id='1394'> +2.7848940e+11 </wgt>
<wgt id='1395'> +2.7416037e+11 </wgt>
<wgt id='1396'> +2.7963484e+11 </wgt>
<wgt id='1397'> +2.7986988e+11 </wgt>
<wgt id='1398'> +2.8299234e+11 </wgt>
<wgt id='1399'> +2.7732744e+11 </wgt>
<wgt id='1400'> +2.7407032e+11 </wgt>
<wgt id='1401'> +2.8015076e+11 </wgt>
<wgt id='1402'> +2.8171813e+11 </wgt>
<wgt id='1403'> +2.8794777e+11 </wgt>
<wgt id='1404'> +2.8263476e+11 </wgt>
<wgt id='1405'> +2.8652803e+11 </wgt>
<wgt id='1406'> +2.8247348e+11 </wgt>
<wgt id='1407'> +2.8003171e+11 </wgt>
<wgt id='1408'> +2.8628392e+11 </wgt>
<wgt id='1409'> +2.7439905e+11 </wgt>
<wgt id='1410'> +2.7166994e+11 </wgt>
<wgt id='1411'> +2.7902429e+11 </wgt>
<wgt id='1412'> +2.7823712e+11 </wgt>
<wgt id='1413'> +2.8126329e+11 </wgt>
<wgt id='1414'> +2.8183622e+11 </wgt>
<wgt id='1415'> +2.7943974e+11 </wgt>
<wgt id='1416'> +2.8060400e+11 </wgt>
<wgt id='1417'> +2.7682898e+11 </wgt>
<wgt id='1418'> +2.7842169e+11 </wgt>
<wgt id='1419'> +2.8275389e+11 </wgt>
<wgt id='1420'> +2.7485475e+11 </wgt>
<wgt id='1421'> +2.8592808e+11 </wgt>
<wgt id='1422'> +2.7228053e+11 </wgt>
<wgt id='1423'> +2.8335435e+11 </wgt>
<wgt id='1424'> +2.7985579e+11 </wgt>
<wgt id='1425'> +2.7974616e+11 </wgt>
<wgt id='1426'> +2.8148509e+11 </wgt>
<wgt id='1427'> +2.7795272e+11 </wgt>
<wgt id='1428'> +2.7775728e+11 </wgt>
<wgt id='1429'> +2.7997575e+11 </wgt>
<wgt id='1430'> +2.7584504e+11 </wgt>
<wgt id='1431'> +2.7532923e+11 </wgt>
<wgt id='1432'> +2.7633631e+11 </wgt>
<wgt id='1433'> +2.7515745e+11 </wgt>
<wgt id='1434'> +2.8646905e+11 </wgt>
<wgt id='1435'> +2.7849452e+11 </wgt>
<wgt id='1436'> +2.8319953e+11 </wgt>
<wgt id='1437'> +2.7814415e+11 </wgt>
<wgt id='1438'> +2.7897253e+11 </wgt>
<wgt id='1439'> +2.8532764e+11 </wgt>
<wgt id='1440'> +2.8047617e+11 </wgt>
<wgt id='1441'> +2.7558688e+11 </wgt>
<wgt id='1442'> +2.8247725e+11 </wgt>
<wgt id='1443'> +2.7594142e+11 </wgt>
<wgt id='1444'> +2.8433404e+11 </wgt>
<wgt id='1445'> +2.7888776e+11 </wgt>
<wgt id='1446'> +2.8695240e+11 </wgt>
<wgt id='1447'> +2.7843816e+11 </wgt>
<wgt id='1448'> +2.8188244e+11 </wgt>
<wgt id='1449'> +2.8238882e+11 </wgt>
<wgt id='1450'> +2.7867675e+11 </wgt>
<wgt id='1451'> +2.7984941e+11 </wgt>
<wgt id='1452'> +2.8139296e+11 </wgt>
<wgt id='1453'> +2.8053779e+11 </wgt>
<wgt id='1454'> +2.7070753e+11 </wgt>
<wgt id='1455'> +2.7779637e+11 </wgt>
<wgt id='1456'> +2.7787481e+11 </wgt>
<wgt id='1457'> +2.7877929e+11 </wgt>
<wgt id='1458'> +2.8527899e+11 </wgt>
<wgt id='1459'> +3.1178250e+11 </wgt>
<wgt id='1460'> +3.0663343e+11 </wgt>
<wgt id='1461'> +3.6508047e+11 </wgt>
<wgt id='1462'> +3.0071927e+11 </wgt>
<wgt id='1463'> +3.0094232e+11 </wgt>
<wgt id='1464'> +3.0043319e+11 </wgt>
<wgt id='1465'> +3.0078618e+11 </wgt>
<wgt id='1466'> +3.0065814e+11 </wgt>
<wgt id='1467'> +3.0083757e+11 </wgt>
<wgt id='1468'> +3.0052513e+11 </wgt>
<wgt id='1469'> +3.0028660e+11 </wgt>
<wgt id='1470'> +3.0107065e+11 </wgt>
<wgt id='1471'> +3.0116989e+11 </wgt>
<wgt id='1472'> +3.0025511e+11 </wgt>
<wgt id='1473'> +3.0191214e+11 </wgt>
<wgt id='1474'> +2.9957349e+11 </wgt>
<wgt id='1475'> +3.0184975e+11 </wgt>
<wgt id='1476'> +2.9991790e+11 </wgt>
<wgt id='1477'> +3.0017089e+11 </wgt>
<wgt id='1478'> +3.0200047e+11 </wgt>
<wgt id='1479'> +3.0036652e+11 </wgt>
<wgt id='1480'> +3.0096983e+11 </wgt>
<wgt id='1481'> +3.0018206e+11 </wgt>
<wgt id='1482'> +3.0144575e+11 </wgt>
<wgt id='1483'> +3.0078377e+11 </wgt>
<wgt id='1484'> +3.0063079e+11 </wgt>
<wgt id='1485'> +3.0092960e+11 </wgt>
<wgt id='1486'> +3.0021266e+11 </wgt>
<wgt id='1487'> +3.0100199e+11 </wgt>
<wgt id='1488'> +3.0036631e+11 </wgt>
<wgt id='1489'> +3.0034659e+11 </wgt>
<wgt id='1490'> +3.0172994e+11 </wgt>
<wgt id='1491'> +3.0573362e+11 </wgt>
<wgt id='1492'> +2.9792515e+11 </wgt>
<wgt id='1493'> +2.9707096e+11 </wgt>
<wgt id='1494'> +3.1216202e+11 </wgt>
<wgt id='1495'> +2.9991630e+11 </wgt>
<wgt id='1496'> +3.0158149e+11 </wgt>
<wgt id='1497'> +3.0092628e+11 </wgt>
<wgt id='1498'> +3.0043654e+11 </wgt>
<wgt id='1499'> +3.0277720e+11 </wgt>
<wgt id='1500'> +2.9959538e+11 </wgt>
<wgt id='1501'> +3.0108844e+11 </wgt>
<wgt id='1502'> +2.9974618e+11 </wgt>
<wgt id='1503'> +2.9667187e+11 </wgt>
<wgt id='1504'> +3.0520867e+11 </wgt>
<wgt id='1505'> +3.0145929e+11 </wgt>
<wgt id='1506'> +2.9999122e+11 </wgt>
<wgt id='1507'> +3.0368000e+11 </wgt>
<wgt id='1508'> +2.9627494e+11 </wgt>
<wgt id='1509'> +3.0146763e+11 </wgt>
<wgt id='1510'> +2.9749479e+11 </wgt>
<wgt id='1511'> +3.0193803e+11 </wgt>
<wgt id='1512'> +3.0034961e+11 </wgt>
<wgt id='1513'> +3.0056746e+11 </wgt>
<wgt id='1514'> +3.0089902e+11 </wgt>
<wgt id='1515'> +3.0422064e+11 </wgt>
<wgt id='1516'> +3.0046202e+11 </wgt>
<wgt id='1517'> +3.0022194e+11 </wgt>
<wgt id='1518'> +3.0135899e+11 </wgt>
<wgt id='1519'> +2.9878906e+11 </wgt>
<wgt id='1520'> +3.0208744e+11 </wgt>
<wgt id='1521'> +2.9957013e+11 </wgt>
<wgt id='1522'> +3.0137219e+11 </wgt>
<wgt id='1523'> +3.0192065e+11 </wgt>
<wgt id='1524'> +3.0233871e+11 </wgt>
<wgt id='1525'> +3.0152859e+11 </wgt>
<wgt id='1526'> +3.0207987e+11 </wgt>
<wgt id='1527'> +3.0071927e+11 </wgt>
<wgt id='1528'> +2.9977871e+11 </wgt>
<wgt id='1529'> +3.0132944e+11 </wgt>
<wgt id='1530'> +2.9674498e+11 </wgt>
<wgt id='1531'> +3.0274362e+11 </wgt>
<wgt id='1532'> +3.0180395e+11 </wgt>
<wgt id='1533'> +2.9738688e+11 </wgt>
<wgt id='1534'> +3.0114756e+11 </wgt>
<wgt id='1535'> +3.0585533e+11 </wgt>
<wgt id='1536'> +2.9960336e+11 </wgt>
<wgt id='1537'> +3.0403361e+11 </wgt>
<wgt id='1538'> +2.9892927e+11 </wgt>
<wgt id='1539'> +3.0798363e+11 </wgt>
<wgt id='1540'> +3.0356242e+11 </wgt>
<wgt id='1541'> +3.0419991e+11 </wgt>
<wgt id='1542'> +3.0284449e+11 </wgt>
<wgt id='1543'> +3.0442604e+11 </wgt>
<wgt id='1544'> +3.0105259e+11 </wgt>
<wgt id='1545'> +3.0071560e+11 </wgt>
<wgt id='1546'> +2.9891988e+11 </wgt>
<wgt id='1547'> +3.0504667e+11 </wgt>
<wgt id='1548'> +3.0140330e+11 </wgt>
<wgt id='1549'> +2.9923022e+11 </wgt>
<wgt id='1550'> +3.0462812e+11 </wgt>
<wgt id='1551'> +3.0335673e+11 </wgt>
<wgt id='1552'> +3.0273844e+11 </wgt>
<wgt id='1553'> +3.0691432e+11 </wgt>
<wgt id='1554'> +3.0289270e+11 </wgt>
<wgt id='1555'> +3.0367878e+11 </wgt>
<wgt id='1556'> +3.0484340e+11 </wgt>
<wgt id='1557'> +3.0231244e+11 </wgt>
<wgt id='1558'> +3.0307624e+11 </wgt>
<wgt id='1559'> +3.0015659e+11 </wgt>
<wgt id='1560'> +3.0157527e+11 </wgt>
<wgt id='1561'> +3.0045245e+11 </wgt>
<wgt id='1562'> +3.0107997e+11 </wgt>
<wgt id='1563'> +3.0298026e+11 </wgt>
<wgt id='1564'> +3.0243260e+11 </wgt>
<wgt id='1565'> +3.0546934e+11 </wgt>
<wgt id='1566'> +3.0276331e+11 </wgt>
<wgt id='1567'> +3.0455145e+11 </wgt>
<wgt id='1568'> +3.0260691e+11 </wgt>
<wgt id='1569'> +3.0216906e+11 </wgt>
<wgt id='1570'> +3.0901599e+11 </wgt>
<wgt id='1571'> +3.0279300e+11 </wgt>
<wgt id='1572'> +3.0459727e+11 </wgt>
<wgt id='1573'> +3.0676214e+11 </wgt>
<wgt id='1574'> +2.5677162e+11 </wgt>
<wgt id='1575'> +2.5683936e+11 </wgt>
<wgt id='1576'> +2.5670313e+11 </wgt>
<wgt id='1577'> +2.5678965e+11 </wgt>
<wgt id='1578'> +2.5736334e+11 </wgt>
<wgt id='1579'> +2.5757736e+11 </wgt>
<wgt id='1580'> +2.5734413e+11 </wgt>
<wgt id='1581'> +2.5627371e+11 </wgt>
<wgt id='1582'> +2.5600018e+11 </wgt>
<wgt id='1583'> +2.5631046e+11 </wgt>
<wgt id='1584'> +2.5733942e+11 </wgt>
<wgt id='1585'> +2.5701233e+11 </wgt>
<wgt id='1586'> +2.5593785e+11 </wgt>
<wgt id='1587'> +2.5610255e+11 </wgt>
<wgt id='1588'> +2.5565160e+11 </wgt>
<wgt id='1589'> +2.5645912e+11 </wgt>
<wgt id='1590'> +2.5661668e+11 </wgt>
<wgt id='1591'> +2.5685071e+11 </wgt>
<wgt id='1592'> +2.5578497e+11 </wgt>
<wgt id='1593'> +2.5570895e+11 </wgt>
<wgt id='1594'> +2.5779942e+11 </wgt>
<wgt id='1595'> +2.5427303e+11 </wgt>
<wgt id='1596'> +2.6094008e+11 </wgt>
<wgt id='1597'> +2.5858277e+11 </wgt>
<wgt id='1598'> +2.5871965e+11 </wgt>
<wgt id='1599'> +2.5378596e+11 </wgt>
<wgt id='1600'> +2.6162751e+11 </wgt>
<wgt id='1601'> +2.5892996e+11 </wgt>
<wgt id='1602'> +2.5682361e+11 </wgt>
<wgt id='1603'> +2.7030436e+11 </wgt>
<wgt id='1604'> +2.5691096e+11 </wgt>
</rwgt>
</event>
<event>
 9      1 +2.8343000e+11 1.39999900e+03 7.81738600e-03 7.88881200e-02
       21 -1    0    0  504  503 +0.0000000000e+00 +0.0000000000e+00 +5.2012888693e+02 5.2012888693e+02 0.0000000000e+00 0.0000e+00 -1.0000e+00
       21 -1    0    0  503  504 -0.0000000000e+00 -0.0000000000e+00 -9.4207315555e+02 9.4207315555e+02 0.0000000000e+00 0.0000e+00 -1.0000e+00
       45  2    1    2    0    0 +0.0000000000e+00 +0.0000000000e+00 -4.2194426863e+02 1.4622020425e+03 1.3999992311e+03 0.0000e+00 0.0000e+00
       25  2    3    3    0    0 -3.1339909326e+01 +3.6813389981e+02 -8.2225098145e+02 9.1006961804e+02 1.2500110033e+02 0.0000e+00 0.0000e+00
       35  2    3    3    0    0 +3.1339909326e+01 -3.6813389981e+02 +4.0030671282e+02 5.5213242444e+02 8.9999953753e+01 0.0000e+00 0.0000e+00
        5  1    5    5  501    0 -1.2138936590e+00 -2.0439012071e+02 +2.7826062357e+02 3.4528760100e+02 4.2140000000e+00 0.0000e+00 1.0000e+00
       -5  1    5    5    0  501 +3.2553802985e+01 -1.6374377910e+02 +1.2204608926e+02 2.0684482343e+02 4.2140000000e+00 0.0000e+00 1.0000e+00
        5  1    4    4  502    0 +4.7846282612e+01 +1.1837834261e+02 -2.5452728482e+02 2.8478868530e+02 4.2140000000e+00 0.0000e+00 -1.0000e+00
       -5  1    4    4    0  502 -7.9186191938e+01 +2.4975555720e+02 -5.6772369663e+02 6.2528093275e+02 4.2140000000e+00 0.0000e+00 -1.0000e+00
<mgrwt>
<rscale>  0 0.13999992E+04</rscale>
<asrwt>0</asrwt>
<pdfrwt beam="1">  1       21 0.80019830E-01 0.13999992E+04</pdfrwt>
<pdfrwt beam="2">  1       21 0.14493433E+00 0.13999992E+04</pdfrwt>
<totfact> 0.33354624E+02</totfact>
</mgrwt>
<rwgt>
<wgt id='1001'> +2.8343000e+11 </wgt>
<wgt id='1002'> +3.1346992e+11 </wgt>
<wgt id='1003'> +3.1346081e+11 </wgt>
<wgt id='1004'> +3.5406043e+11 </wgt>
<wgt id='1005'> +2.8343000e+11 </wgt>
<wgt id='1006'> +2.8343000e+11 </wgt>
<wgt id='1007'> +3.1346992e+11 </wgt>
<wgt id='1008'> +3.1346081e+11 </wgt>
<wgt id='1009'> +3.5406043e+11 </wgt>
<wgt id='1010'> +2.8343000e+11 </wgt>
<wgt id='1011'> +2.8343000e+11 </wgt>
<wgt id='1012'> +3.1346992e+11 </wgt>
<wgt id='1013'> +3.1346081e+11 </wgt>
<wgt id='1014'> +3.5406043e+11 </wgt>
<wgt id='1015'> +2.8343000e+11 </wgt>
<wgt id='1016'> +2.5446560e+11 </wgt>
<wgt id='1017'> +2.7967244e+11 </wgt>
<wgt id='1018'> +2.7966483e+11 </wgt>
<wgt id='1019'> +3.1346081e+11 </wgt>
<wgt id='1020'> +2.5446560e+11 </wgt>
<wgt id='1021'> +2.5446560e+11 </wgt>
<wgt id='1022'> +2.7967244e+11 </wgt>
<wgt id='1023'> +2.7966483e+11 </wgt>
<wgt id='1024'> +3.1346081e+11 </wgt>
<wgt id='1025'> +2.5446560e+11 </wgt>
<wgt id='1026'> +2.5446560e+11 </wgt>
<wgt id='1027'> +2.7967244e+11 </wgt>
<wgt id='1028'> +2.7966483e+11 </wgt>
<wgt id='1029'> +3.1346081e+11 </wgt>
<wgt id='1030'> +2.5446560e+11 </wgt>
<wgt id='1031'> +3.1797577e+11 </wgt>
<wgt id='1032'> +3.5407145e+11 </wgt>
<wgt id='1033'> +3.5406043e+11 </wgt>
<wgt id='1034'> +4.0349402e+11 </wgt>
<wgt id='1035'> +3.1797577e+11 </wgt>
<wgt id='1036'> +3.1797577e+11 </wgt>
<wgt id='1037'> +3.5407145e+11 </wgt>
<wgt id='1038'> +3.5406043e+11 </wgt>
<wgt id='1039'> +4.0349402e+11 </wgt>
<wgt id='1040'> +3.1797577e+11 </wgt>
<wgt id='1041'> +3.1797577e+11 </wgt>
<wgt id='1042'> +3.5407145e+11 </wgt>
<wgt id='1043'> +3.5406043e+11 </wgt>
<wgt id='1044'> +4.0349402e+11 </wgt>
<wgt id='1045'> +3.1797577e+11 </wgt>
<wgt id='1046'> +2.8343000e+11 </wgt>
<wgt id='1047'> +2.8343000e+11 </wgt>
<wgt id='1048'> +2.8343000e+11 </wgt>
<wgt id='1049'> +2.8253211e+11 </wgt>
<wgt id='1050'> +2.8317790e+11 </wgt>
<wgt id='1051'> +2.8345176e+11 </wgt>
<wgt id='1052'> +2.8431650e+11 </wgt>
<wgt id='1053'> +2.8180740e+11 </wgt>
<wgt id='1054'> +2.8378854e+11 </wgt>
<wgt id='1055'> +2.8225701e+11 </wgt>
<wgt id='1056'> +2.8199290e+11 </wgt>
<wgt id='1057'> +2.8394854e+11 </wgt>
<wgt id='1058'> +2.8296086e+11 </wgt>
<wgt id='1059'> +2.8527747e+11 </wgt>
<wgt id='1060'> +2.8371967e+11 </wgt>
<wgt id='1061'> +2.8406124e+11 </wgt>
<wgt id='1062'> +2.8413900e+11 </wgt>
<wgt id='1063'> +2.8404737e+11 </wgt>
<wgt id='1064'> +2.8435168e+11 </wgt>
<wgt id='1065'> +2.8473867e+11 </wgt>
<wgt id='1066'> +2.8155022e+11 </wgt>
<wgt id='1067'> +2.8060445e+11 </wgt>
<wgt id='1068'> +2.8346570e+11 </wgt>
<wgt id='1069'> +2.8262415e+11 </wgt>
<wgt id='1070'> +2.8368938e+11 </wgt>
<wgt id='1071'> +2.8407294e+11 </wgt>
<wgt id='1072'> +2.8149621e+11 </wgt>
<wgt id='1073'> +2.8386274e+11 </wgt>
<wgt id='1074'> +2.8332213e+11 </wgt>
<wgt id='1075'> +2.8449269e+11 </wgt>
<wgt id='1076'> +2.8227148e+11 </wgt>
<wgt id='1077'> +2.8245283e+11 </wgt>
<wgt id='1078'> +2.8409418e+11 </wgt>
<wgt id='1079'> +2.8203197e+11 </wgt>
<wgt id='1080'> +2.8301711e+11 </wgt>
<wgt id='1081'> +2.8295720e+11 </wgt>
<wgt id='1082'> +2.8213264e+11 </wgt>
<wgt id='1083'> +2.8386543e+11 </wgt>
<wgt id='1084'> +2.8398890e+11 </wgt>
<wgt id='1085'> +2.8279627e+11 </wgt>
<wgt id='1086'> +2.8299547e+11 </wgt>
<wgt id='1087'> +2.8310163e+11 </wgt>
<wgt id='1088'> +2.8293588e+11 </wgt>
<wgt id='1089'> +2.8274047e+11 </wgt>
<wgt id='1090'> +2.8414291e+11 </wgt>
<wgt id='1091'> +2.8352290e+11 </wgt>
<wgt id='1092'> +2.8370157e+11 </wgt>
<wgt id='1093'> +2.8331391e+11 </wgt>
<wgt id='1094'> +2.8281268e+11 </wgt>
<wgt id='1095'> +2.8358874e+11 </wgt>
<wgt id='1096'> +2.8335969e+11 </wgt>
<wgt id='1097'> +2.8302014e+11 </wgt>
<wgt id='1098'> +2.8309445e+11 </wgt>
<wgt id='1099'> +2.8316333e+11 </wgt>
<wgt id='1100'> +2.8401728e+11 </wgt>
<wgt id='1101'> +2.8341883e+11 </wgt>
<wgt id='1102'> +2.8328901e+11 </wgt>
<wgt id='1103'> +2.8305986e+11 </wgt>
<wgt id='1104'> +2.8314067e+11 </wgt>
<wgt id='1105'> +2.8354612e+11 </wgt>
<wgt id='1106'> +2.8374885e+11 </wgt>
<wgt id='1107'> +2.8336681e+11 </wgt>
<wgt id='1108'> +2.8331999e+11 </wgt>
<wgt id='1109'> +2.8321756e+11 </wgt>
<wgt id='1110'> +2.8374363e+11 </wgt>
<wgt id='1111'> +2.8356285e+11 </wgt>
<wgt id='1112'> +2.8338818e+11 </wgt>
<wgt id='1113'> +2.8374406e+11 </wgt>
<wgt id='1114'> +2.8311244e+11 </wgt>
<wgt id='1115'> +2.8319115e+11 </wgt>
<wgt id='1116'> +2.8380667e+11 </wgt>
<wgt id='1117'> +2.8336761e+11 </wgt>
<wgt id='1118'> +2.8354347e+11 </wgt>
<wgt id='1119'> +2.8321353e+11 </wgt>
<wgt id='1120'> +2.8325588e+11 </wgt>
<wgt id='1121'> +2.8348973e+11 </wgt>
<wgt id='1122'> +2.8320608e+11 </wgt>
<wgt id='1123'> +2.8337612e+11 </wgt>
<wgt id='1124'> +2.8338121e+11 </wgt>
<wgt id='1125'> +2.8359362e+11 </wgt>
<wgt id='1126'> +2.8353975e+11 </wgt>
<wgt id='1127'> +2.8332300e+11 </wgt>
<wgt id='1128'> +2.8344850e+11 </wgt>
<wgt id='1129'> +2.8336447e+11 </wgt>
<wgt id='1130'> +2.8346673e+11 </wgt>
<wgt id='1131'> +2.8374311e+11 </wgt>
<wgt id='1132'> +2.8335020e+11 </wgt>
<wgt id='1133'> +2.8351244e+11 </wgt>
<wgt id='1134'> +2.8341133e+11 </wgt>
<wgt id='1135'> +2.8347154e+11 </wgt>
<wgt id='1136'> +2.8337966e+11 </wgt>
<wgt id='1137'> +2.8327022e+11 </wgt>
<wgt id='1138'> +2.8355301e+11 </wgt>
<wgt id='1139'> +2.8348157e+11 </wgt>
<wgt id='1140'> +2.8363876e+11 </wgt>
<wgt id='1141'> +2.8327669e+11 </wgt>
<wgt id='1142'> +2.8350454e+11 </wgt>
<wgt id='1143'> +2.8359817e+11 </wgt>
<wgt id='1144'> +2.8334057e+11 </wgt>
<wgt id='1145'> +2.8356306e+11 </wgt>
<wgt id='1146'> +2.8342927e+11 </wgt>
<wgt id='1147'> +2.8347990e+11 </wgt>
<wgt id='1148'> +2.8343000e+11 </wgt>
<wgt id='1149'> +2.8343000e+11 </wgt>
<wgt id='1150'> +2.9477388e+11 </wgt>
<wgt id='1151'> +2.7956743e+11 </wgt>
<wgt id='1152'> +2.8175663e+11 </wgt>
<wgt id='1153'> +2.8688238e+11 </wgt>
<wgt id='1154'> +2.8538082e+11 </wgt>
<wgt id='1155'> +2.9016050e+11 </wgt>
<wgt id='1156'> +2.7702912e+11 </wgt>
<wgt id='1157'> +2.7532452e+11 </wgt>
<wgt id='1158'> +2.7734164e+11 </wgt>
<wgt id='1159'> +2.9829143e+11 </wgt>
<wgt id='1160'> +2.8318406e+11 </wgt>
<wgt id='1161'> +2.8572893e+11 </wgt>
<wgt id='1162'> +2.8050682e+11 </wgt>
<wgt id='1163'> +2.8635204e+11 </wgt>
<wgt id='1164'> +2.6985120e+11 </wgt>
<wgt id='1165'> +2.7813290e+11 </wgt>
<wgt id='1166'> +2.8400408e+11 </wgt>
<wgt id='1167'> +2.7887264e+11 </wgt>
<wgt id='1168'> +2.7563319e+11 </wgt>
<wgt id='1169'> +2.7572633e+11 </wgt>
<wgt id='1170'> +2.8015508e+11 </wgt>
<wgt id='1171'> +2.7303742e+11 </wgt>
<wgt id='1172'> +2.7639839e+11 </wgt>
<wgt id='1173'> +2.8659134e+11 </wgt>
<wgt id='1174'> +2.7830140e+11 </wgt>
<wgt id='1175'> +2.7657174e+11 </wgt>
<wgt id='1176'> +2.8633992e+11 </wgt>
<wgt id='1177'> +2.7848322e+11 </wgt>
<wgt id='1178'> +2.8311601e+11 </wgt>
<wgt id='1179'> +2.8104624e+11 </wgt>
<wgt id='1180'> +2.8879974e+11 </wgt>
<wgt id='1181'> +2.8154898e+11 </wgt>
<wgt id='1182'> +2.8065034e+11 </wgt>
<wgt id='1183'> +2.9316672e+11 </wgt>
<wgt id='1184'> +2.8142604e+11 </wgt>
<wgt id='1185'> +2.8462196e+11 </wgt>
<wgt id='1186'> +2.7428692e+11 </wgt>
<wgt id='1187'> +2.8481463e+11 </wgt>
<wgt id='1188'> +2.8275913e+11 </wgt>
<wgt id='1189'> +2.8386353e+11 </wgt>
<wgt id='1190'> +2.8278069e+11 </wgt>
<wgt id='1191'> +2.9304251e+11 </wgt>
<wgt id='1192'> +2.9044473e+11 </wgt>
<wgt id='1193'> +2.9348168e+11 </wgt>
<wgt id='1194'> +2.8294533e+11 </wgt>
<wgt id='1195'> +2.8369567e+11 </wgt>
<wgt id='1196'> +2.9194955e+11 </wgt>
<wgt id='1197'> +2.9257869e+11 </wgt>
<wgt id='1198'> +2.7948568e+11 </wgt>
<wgt id='1199'> +2.8541032e+11 </wgt>
<wgt id='1200'> +2.8428119e+11 </wgt>
<wgt id='1201'> +2.7972113e+11 </wgt>
<wgt id='1202'> +2.8772800e+11 </wgt>
<wgt id='1203'> +2.7901882e+11 </wgt>
<wgt id='1204'> +2.8585003e+11 </wgt>
<wgt id='1205'> +2.8417561e+11 </wgt>
<wgt id='1206'> +2.7779898e+11 </wgt>
<wgt id='1207'> +2.9204495e+11 </wgt>
<wgt id='1208'> +2.7168125e+11 </wgt>
<wgt id='1209'> +2.8060274e+11 </wgt>
<wgt id='1210'> +2.8261375e+11 </wgt>
<wgt id='1211'> +2.8567228e+11 </wgt>
<wgt id='1212'> +2.8322854e+11 </wgt>
<wgt id='1213'> +2.9154282e+11 </wgt>
<wgt id='1214'> +2.7619486e+11 </wgt>
<wgt id='1215'> +2.8917370e+11 </wgt>
<wgt id='1216'> +2.8467860e+11 </wgt>
<wgt id='1217'> +2.7640523e+11 </wgt>
<wgt id='1218'> +2.8467093e+11 </wgt>
<wgt id='1219'> +2.9391997e+11 </wgt>
<wgt id='1220'> +2.7804881e+11 </wgt>
<wgt id='1221'> +2.7574213e+11 </wgt>
<wgt id='1222'> +2.7947508e+11 </wgt>
<wgt id='1223'> +2.7280729e+11 </wgt>
<wgt id='1224'> +2.8328029e+11 </wgt>
<wgt id='1225'> +2.8836496e+11 </wgt>
<wgt id='1226'> +2.8883440e+11 </wgt>
<wgt id='1227'> +2.7609687e+11 </wgt>
<wgt id='1228'> +2.8166898e+11 </wgt>
<wgt id='1229'> +3.0220257e+11 </wgt>
<wgt id='1230'> +2.9227991e+11 </wgt>
<wgt id='1231'> +2.7813290e+11 </wgt>
<wgt id='1232'> +2.8809907e+11 </wgt>
<wgt id='1233'> +2.7725172e+11 </wgt>
<wgt id='1234'> +2.7670647e+11 </wgt>
<wgt id='1235'> +3.0125758e+11 </wgt>
<wgt id='1236'> +2.7680817e+11 </wgt>
<wgt id='1237'> +2.8918645e+11 </wgt>
<wgt id='1238'> +2.8667895e+11 </wgt>
<wgt id='1239'> +2.8932332e+11 </wgt>
<wgt id='1240'> +2.8264148e+11 </wgt>
<wgt id='1241'> +2.8310354e+11 </wgt>
<wgt id='1242'> +2.8021461e+11 </wgt>
<wgt id='1243'> +2.8752791e+11 </wgt>
<wgt id='1244'> +2.8288348e+11 </wgt>
<wgt id='1245'> +2.8075070e+11 </wgt>
<wgt id='1246'> +3.0600054e+11 </wgt>
<wgt id='1247'> +2.8255741e+11 </wgt>
<wgt id='1248'> +2.7425811e+11 </wgt>
<wgt id='1249'> +2.7669655e+11 </wgt>
<wgt id='1250'> +2.9243871e+11 </wgt>
<wgt id='1251'> +2.9925351e+11 </wgt>
<wgt id='1252'> +2.8734852e+11 </wgt>
<wgt id='1253'> +2.8651729e+11 </wgt>
<wgt id='1254'> +2.8846707e+11 </wgt>
<wgt id='1255'> +2.9915088e+11 </wgt>
<wgt id='1256'> +2.9809120e+11 </wgt>
<wgt id='1257'> +2.9074513e+11 </wgt>
<wgt id='1258'> +2.9762596e+11 </wgt>
<wgt id='1259'> +2.9653325e+11 </wgt>
<wgt id='1260'> +3.2540417e+11 </wgt>
<wgt id='1261'> +3.1360676e+11 </wgt>
<wgt id='1262'> +2.9060121e+11 </wgt>
<wgt id='1263'> +2.9727808e+11 </wgt>
<wgt id='1264'> +2.9961780e+11 </wgt>
<wgt id='1265'> +2.9727317e+11 </wgt>
<wgt id='1266'> +2.9692679e+11 </wgt>
<wgt id='1267'> +3.2382212e+11 </wgt>
<wgt id='1268'> +2.9269591e+11 </wgt>
<wgt id='1269'> +2.8699661e+11 </wgt>
<wgt id='1270'> +2.9501741e+11 </wgt>
<wgt id='1271'> +2.7559864e+11 </wgt>
<wgt id='1272'> +2.9303782e+11 </wgt>
<wgt id='1273'> +2.9122736e+11 </wgt>
<wgt id='1274'> +2.8685639e+11 </wgt>
<wgt id='1275'> +2.9715267e+11 </wgt>
<wgt id='1276'> +2.9716721e+11 </wgt>
<wgt id='1277'> +2.9239003e+11 </wgt>
<wgt id='1278'> +2.9091691e+11 </wgt>
<wgt id='1279'> +2.8060269e+11 </wgt>
<wgt id='1280'> +2.9069220e+11 </wgt>
<wgt id='1281'> +2.8530411e+11 </wgt>
<wgt id='1282'> +2.9612447e+11 </wgt>
<wgt id='1283'> +2.9925242e+11 </wgt>
<wgt id='1284'> +3.1304726e+11 </wgt>
<wgt id='1285'> +3.0803377e+11 </wgt>
<wgt id='1286'> +3.2868213e+11 </wgt>
<wgt id='1287'> +3.0361841e+11 </wgt>
<wgt id='1288'> +3.2563336e+11 </wgt>
<wgt id='1289'> +3.1299042e+11 </wgt>
<wgt id='1290'> +3.1146740e+11 </wgt>
<wgt id='1291'> +2.7784937e+11 </wgt>
<wgt id='1292'> +2.9870082e+11 </wgt>
<wgt id='1293'> +3.0103328e+11 </wgt>
<wgt id='1294'> +3.1604985e+11 </wgt>
<wgt id='1295'> +3.0240349e+11 </wgt>
<wgt id='1296'> +3.1837105e+11 </wgt>
<wgt id='1297'> +2.9426083e+11 </wgt>
<wgt id='1298'> +2.8756586e+11 </wgt>
<wgt id='1299'> +2.9990913e+11 </wgt>
<wgt id='1300'> +2.8787270e+11 </wgt>
<wgt id='1301'> +2.7981568e+11 </wgt>
<wgt id='1302'> +2.7916378e+11 </wgt>
<wgt id='1303'> +2.9935824e+11 </wgt>
<wgt id='1304'> +3.1075766e+11 </wgt>
<wgt id='1305'> +2.9830109e+11 </wgt>
<wgt id='1306'> +3.0532012e+11 </wgt>
<wgt id='1307'> +2.9953427e+11 </wgt>
<wgt id='1308'> +3.2643532e+11 </wgt>
<wgt id='1309'> +2.9686311e+11 </wgt>
<wgt id='1310'> +3.0224754e+11 </wgt>
<wgt id='1311'> +3.0528405e+11 </wgt>
<wgt id='1312'> +3.0170908e+11 </wgt>
<wgt id='1313'> +2.9829616e+11 </wgt>
<wgt id='1314'> +3.0152474e+11 </wgt>
<wgt id='1315'> +2.8563422e+11 </wgt>
<wgt id='1316'> +2.9886860e+11 </wgt>
<wgt id='1317'> +3.0319352e+11 </wgt>
<wgt id='1318'> +2.8853686e+11 </wgt>
<wgt id='1319'> +3.0388434e+11 </wgt>
<wgt id='1320'> +3.1096932e+11 </wgt>
<wgt id='1321'> +2.9496050e+11 </wgt>
<wgt id='1322'> +2.9903518e+11 </wgt>
<wgt id='1323'> +2.9642354e+11 </wgt>
<wgt id='1324'> +3.0230163e+11 </wgt>
<wgt id='1325'> +3.1109059e+11 </wgt>
<wgt id='1326'> +3.0463550e+11 </wgt>
<wgt id='1327'> +2.9849088e+11 </wgt>
<wgt id='1328'> +3.0017483e+11 </wgt>
<wgt id='1329'> +2.9773103e+11 </wgt>
<wgt id='1330'> +2.8914269e+11 </wgt>
<wgt id='1331'> +3.1989766e+11 </wgt>
<wgt id='1332'> +2.8838212e+11 </wgt>
<wgt id='1333'> +3.0099677e+11 </wgt>
<wgt id='1334'> +3.1415932e+11 </wgt>
<wgt id='1335'> +2.9268644e+11 </wgt>
<wgt id='1336'> +3.0550385e+11 </wgt>
<wgt id='1337'> +3.0838256e+11 </wgt>
<wgt id='1338'> +2.8916656e+11 </wgt>
<wgt id='1339'> +3.1893068e+11 </wgt>
<wgt id='1340'> +3.0244212e+11 </wgt>
<wgt id='1341'> +3.0848881e+11 </wgt>
<wgt id='1342'> +3.1203533e+11 </wgt>
<wgt id='1343'> +3.0960327e+11 </wgt>
<wgt id='1344'> +3.0711933e+11 </wgt>
<wgt id='1345'> +2.7586737e+11 </wgt>
<wgt id='1346'> +3.0059084e+11 </wgt>
<wgt id='1347'> +2.8789450e+11 </wgt>
<wgt id='1348'> +2.8847631e+11 </wgt>
<wgt id='1349'> +2.8843701e+11 </wgt>
<wgt id='1350'> +3.0205749e+11 </wgt>
<wgt id='1351'> +2.9513801e+11 </wgt>
<wgt id='1352'> +3.0116466e+11 </wgt>
<wgt id='1353'> +2.9781278e+11 </wgt>
<wgt id='1354'> +3.0728327e+11 </wgt>
<wgt id='1355'> +2.7527091e+11 </wgt>
<wgt id='1356'> +2.7798666e+11 </wgt>
<wgt id='1357'> +2.7586676e+11 </wgt>
<wgt id='1358'> +2.7294874e+11 </wgt>
<wgt id='1359'> +2.7573686e+11 </wgt>
<wgt id='1360'> +2.6910824e+11 </wgt>
<wgt id='1361'> +2.7495867e+11 </wgt>
<wgt id='1362'> +2.7872751e+11 </wgt>
<wgt id='1363'> +2.7009907e+11 </wgt>
<wgt id='1364'> +2.8086035e+11 </wgt>
<wgt id='1365'> +2.7300047e+11 </wgt>
<wgt id='1366'> +2.7419616e+11 </wgt>
<wgt id='1367'> +2.7596066e+11 </wgt>
<wgt id='1368'> +2.7542816e+11 </wgt>
<wgt id='1369'> +2.7882409e+11 </wgt>
<wgt id='1370'> +2.7335690e+11 </wgt>
<wgt id='1371'> +2.7402089e+11 </wgt>
<wgt id='1372'> +2.7911601e+11 </wgt>
<wgt id='1373'> +2.7870047e+11 </wgt>
<wgt id='1374'> +2.6725867e+11 </wgt>
<wgt id='1375'> +2.7484016e+11 </wgt>
<wgt id='1376'> +2.7560958e+11 </wgt>
<wgt id='1377'> +2.7555899e+11 </wgt>
<wgt id='1378'> +2.7211929e+11 </wgt>
<wgt id='1379'> +2.7374869e+11 </wgt>
<wgt id='1380'> +2.7334512e+11 </wgt>
<wgt id='1381'> +2.8043269e+11 </wgt>
<wgt id='1382'> +2.7473023e+11 </wgt>
<wgt id='1383'> +2.7453099e+11 </wgt>
<wgt id='1384'> +2.7311434e+11 </wgt>
<wgt id='1385'> +2.7300587e+11 </wgt>
<wgt id='1386'> +2.7626836e+11 </wgt>
<wgt id='1387'> +2.7402288e+11 </wgt>
<wgt id='1388'> +2.7118948e+11 </wgt>
<wgt id='1389'> +2.7393765e+11 </wgt>
<wgt id='1390'> +2.7516378e+11 </wgt>
<wgt id='1391'> +2.7308440e+11 </wgt>
<wgt id='1392'> +2.7298246e+11 </wgt>
<wgt id='1393'> +2.7400095e+11 </wgt>
<wgt id='1394'> +2.7321906e+11 </wgt>
<wgt id='1395'> +2.7084201e+11 </wgt>
<wgt id='1396'> +2.7611112e+11 </wgt>
<wgt id='1397'> +2.7599922e+11 </wgt>
<wgt id='1398'> +2.7630593e+11 </wgt>
<wgt id='1399'> +2.7151659e+11 </wgt>
<wgt id='1400'> +2.7183463e+11 </wgt>
<wgt id='1401'> +2.7450048e+11 </wgt>
<wgt id='1402'> +2.7834439e+11 </wgt>
<wgt id='1403'> +2.7948237e+11 </wgt>
<wgt id='1404'> +2.7443943e+11 </wgt>
<wgt id='1405'> +2.8141494e+11 </wgt>
<wgt id='1406'> +2.7566832e+11 </wgt>
<wgt id='1407'> +2.7577258e+11 </wgt>
<wgt id='1408'> +2.7901607e+11 </wgt>
<wgt id='1409'> +2.7263348e+11 </wgt>
<wgt id='1410'> +2.7141810e+11 </wgt>
<wgt id='1411'> +2.7497429e+11 </wgt>
<wgt id='1412'> +2.7375652e+11 </wgt>
<wgt id='1413'> +2.7262520e+11 </wgt>
<wgt id='1414'> +2.7733817e+11 </wgt>
<wgt id='1415'> +2.8011962e+11 </wgt>
<wgt id='1416'> +2.7808048e+11 </wgt>
<wgt id='1417'> +2.6965154e+11 </wgt>
<wgt id='1418'> +2.7638440e+11 </wgt>
<wgt id='1419'> +2.7896610e+11 </wgt>
<wgt id='1420'> +2.7415321e+11 </wgt>
<wgt id='1421'> +2.8133191e+11 </wgt>
<wgt id='1422'> +2.6807888e+11 </wgt>
<wgt id='1423'> +2.8036884e+11 </wgt>
<wgt id='1424'> +2.7641976e+11 </wgt>
<wgt id='1425'> +2.7569865e+11 </wgt>
<wgt id='1426'> +2.7824011e+11 </wgt>
<wgt id='1427'> +2.7507266e+11 </wgt>
<wgt id='1428'> +2.7494078e+11 </wgt>
<wgt id='1429'> +2.7248809e+11 </wgt>
<wgt id='1430'> +2.7086467e+11 </wgt>
<wgt id='1431'> +2.7032403e+11 </wgt>
<wgt id='1432'> +2.7628884e+11 </wgt>
<wgt id='1433'> +2.7502714e+11 </wgt>
<wgt id='1434'> +2.8237294e+11 </wgt>
<wgt id='1435'> +2.7429580e+11 </wgt>
<wgt id='1436'> +2.7915918e+11 </wgt>
<wgt id='1437'> +2.7703132e+11 </wgt>
<wgt id='1438'> +2.7377544e+11 </wgt>
<wgt id='1439'> +2.7707354e+11 </wgt>
<wgt id='1440'> +2.7916538e+11 </wgt>
<wgt id='1441'> +2.7428532e+11 </wgt>
<wgt id='1442'> +2.8193085e+11 </wgt>
<wgt id='1443'> +2.7324940e+11 </wgt>
<wgt id='1444'> +2.7489483e+11 </wgt>
<wgt id='1445'> +2.7754109e+11 </wgt>
<wgt id='1446'> +2.7860759e+11 </wgt>
<wgt id='1447'> +2.7185166e+11 </wgt>
<wgt id='1448'> +2.7765813e+11 </wgt>
<wgt id='1449'> +2.7721555e+11 </wgt>
<wgt id='1450'> +2.7387448e+11 </wgt>
<wgt id='1451'> +2.7664334e+11 </wgt>
<wgt id='1452'> +2.7801271e+11 </wgt>
<wgt id='1453'> +2.7890221e+11 </wgt>
<wgt id='1454'> +2.6824623e+11 </wgt>
<wgt id='1455'> +2.7437709e+11 </wgt>
<wgt id='1456'> +2.7443202e+11 </wgt>
<wgt id='1457'> +2.7412093e+11 </wgt>
<wgt id='1458'> +2.7800310e+11 </wgt>
<wgt id='1459'> +3.0593657e+11 </wgt>
<wgt id='1460'> +3.0119689e+11 </wgt>
<wgt id='1461'> +3.5066951e+11 </wgt>
<wgt id='1462'> +2.9866073e+11 </wgt>
<wgt id='1463'> +2.9890320e+11 </wgt>
<wgt id='1464'> +2.9834974e+11 </wgt>
<wgt id='1465'> +2.9872319e+11 </wgt>
<wgt id='1466'> +2.9860364e+11 </wgt>
<wgt id='1467'> +2.9881244e+11 </wgt>
<wgt id='1468'> +2.9841179e+11 </wgt>
<wgt id='1469'> +2.9821635e+11 </wgt>
<wgt id='1470'> +2.9902164e+11 </wgt>
<wgt id='1471'> +2.9913070e+11 </wgt>
<wgt id='1472'> +2.9817666e+11 </wgt>
<wgt id='1473'> +2.9981664e+11 </wgt>
<wgt id='1474'> +2.9755049e+11 </wgt>
<wgt id='1475'> +2.9976174e+11 </wgt>
<wgt id='1476'> +2.9788014e+11 </wgt>
<wgt id='1477'> +2.9809528e+11 </wgt>
<wgt id='1478'> +2.9998161e+11 </wgt>
<wgt id='1479'> +2.9813708e+11 </wgt>
<wgt id='1480'> +2.9902718e+11 </wgt>
<wgt id='1481'> +2.9822192e+11 </wgt>
<wgt id='1482'> +2.9925275e+11 </wgt>
<wgt id='1483'> +2.9875276e+11 </wgt>
<wgt id='1484'> +2.9853039e+11 </wgt>
<wgt id='1485'> +2.9886455e+11 </wgt>
<wgt id='1486'> +2.9816989e+11 </wgt>
<wgt id='1487'> +2.9891781e+11 </wgt>
<wgt id='1488'> +2.9833817e+11 </wgt>
<wgt id='1489'> +2.9830634e+11 </wgt>
<wgt id='1490'> +2.9962151e+11 </wgt>
<wgt id='1491'> +3.0357441e+11 </wgt>
<wgt id='1492'> +2.9591917e+11 </wgt>
<wgt id='1493'> +2.9514637e+11 </wgt>
<wgt id='1494'> +3.0967704e+11 </wgt>
<wgt id='1495'> +2.9799716e+11 </wgt>
<wgt id='1496'> +2.9937260e+11 </wgt>
<wgt id='1497'> +2.9885905e+11 </wgt>
<wgt id='1498'> +2.9838962e+11 </wgt>
<wgt id='1499'> +3.0055368e+11 </wgt>
<wgt id='1500'> +2.9762547e+11 </wgt>
<wgt id='1501'> +2.9911092e+11 </wgt>
<wgt id='1502'> +2.9746789e+11 </wgt>
<wgt id='1503'> +2.9539643e+11 </wgt>
<wgt id='1504'> +3.0215527e+11 </wgt>
<wgt id='1505'> +2.9963165e+11 </wgt>
<wgt id='1506'> +2.9772338e+11 </wgt>
<wgt id='1507'> +3.0025445e+11 </wgt>
<wgt id='1508'> +2.9726449e+11 </wgt>
<wgt id='1509'> +2.9926293e+11 </wgt>
<wgt id='1510'> +2.9607442e+11 </wgt>
<wgt id='1511'> +2.9979041e+11 </wgt>
<wgt id='1512'> +2.9833056e+11 </wgt>
<wgt id='1513'> +2.9857353e+11 </wgt>
<wgt id='1514'> +2.9874858e+11 </wgt>
<wgt id='1515'> +3.0124405e+11 </wgt>
<wgt id='1516'> +2.9899764e+11 </wgt>
<wgt id='1517'> +2.9826977e+11 </wgt>
<wgt id='1518'> +2.9901843e+11 </wgt>
<wgt id='1519'> +2.9698419e+11 </wgt>
<wgt id='1520'> +2.9985299e+11 </wgt>
<wgt id='1521'> +2.9783067e+11 </wgt>
<wgt id='1522'> +2.9915251e+11 </wgt>
<wgt id='1523'> +2.9998231e+11 </wgt>
<wgt id='1524'> +3.0006301e+11 </wgt>
<wgt id='1525'> +2.9981633e+11 </wgt>
<wgt id='1526'> +2.9954083e+11 </wgt>
<wgt id='1527'> +2.9866073e+11 </wgt>
<wgt id='1528'> +2.9835789e+11 </wgt>
<wgt id='1529'> +2.9847017e+11 </wgt>
<wgt id='1530'> +2.9474301e+11 </wgt>
<wgt id='1531'> +2.9628841e+11 </wgt>
<wgt id='1532'> +2.9393552e+11 </wgt>
<wgt id='1533'> +2.9163945e+11 </wgt>
<wgt id='1534'> +2.9469195e+11 </wgt>
<wgt id='1535'> +2.9867260e+11 </wgt>
<wgt id='1536'> +2.9373723e+11 </wgt>
<wgt id='1537'> +2.9623389e+11 </wgt>
<wgt id='1538'> +2.9314275e+11 </wgt>
<wgt id='1539'> +3.0221626e+11 </wgt>
<wgt id='1540'> +2.9565600e+11 </wgt>
<wgt id='1541'> +2.9685203e+11 </wgt>
<wgt id='1542'> +2.9626908e+11 </wgt>
<wgt id='1543'> +2.9751622e+11 </wgt>
<wgt id='1544'> +2.9437630e+11 </wgt>
<wgt id='1545'> +2.9429988e+11 </wgt>
<wgt id='1546'> +2.9234813e+11 </wgt>
<wgt id='1547'> +2.9859909e+11 </wgt>
<wgt id='1548'> +2.9438424e+11 </wgt>
<wgt id='1549'> +2.9281565e+11 </wgt>
<wgt id='1550'> +2.9717321e+11 </wgt>
<wgt id='1551'> +2.9687681e+11 </wgt>
<wgt id='1552'> +2.9575013e+11 </wgt>
<wgt id='1553'> +2.9846442e+11 </wgt>
<wgt id='1554'> +2.9616957e+11 </wgt>
<wgt id='1555'> +2.9695169e+11 </wgt>
<wgt id='1556'> +2.9868399e+11 </wgt>
<wgt id='1557'> +2.9516253e+11 </wgt>
<wgt id='1558'> +2.9635763e+11 </wgt>
<wgt id='1559'> +2.9413738e+11 </wgt>
<wgt id='1560'> +2.9503159e+11 </wgt>
<wgt id='1561'> +2.9278810e+11 </wgt>
<wgt id='1562'> +2.9493299e+11 </wgt>
<wgt id='1563'> +2.9631092e+11 </wgt>
<wgt id='1564'> +2.9585054e+11 </wgt>
<wgt id='1565'> +2.9837175e+11 </wgt>
<wgt id='1566'> +2.9627902e+11 </wgt>
<wgt id='1567'> +2.9967804e+11 </wgt>
<wgt id='1568'> +2.9621798e+11 </wgt>
<wgt id='1569'> +2.9591760e+11 </wgt>
<wgt id='1570'> +3.0286577e+11 </wgt>
<wgt id='1571'> +2.9613295e+11 </wgt>
<wgt id='1572'> +2.9827722e+11 </wgt>
<wgt id='1573'> +2.9954713e+11 </wgt>
<wgt id='1574'> +2.6622374e+11 </wgt>
<wgt id='1575'> +2.6629589e+11 </wgt>
<wgt id='1576'> +2.6615578e+11 </wgt>
<wgt id='1577'> +2.6624210e+11 </wgt>
<wgt id='1578'> +2.6683524e+11 </wgt>
<wgt id='1579'> +2.6707823e+11 </wgt>
<wgt id='1580'> +2.6685085e+11 </wgt>
<wgt id='1581'> +2.6561609e+11 </wgt>
<wgt id='1582'> +2.6531454e+11 </wgt>
<wgt id='1583'> +2.6576992e+11 </wgt>
<wgt id='1584'> +2.6680586e+11 </wgt>
<wgt id='1585'> +2.6642114e+11 </wgt>
<wgt id='1586'> +2.6523080e+11 </wgt>
<wgt id='1587'> +2.6547304e+11 </wgt>
<wgt id='1588'> +2.6497737e+11 </wgt>
<wgt id='1589'> +2.6595882e+11 </wgt>
<wgt id='1590'> +2.6604440e+11 </wgt>
<wgt id='1591'> +2.6629368e+11 </wgt>
<wgt id='1592'> +2.6519647e+11 </wgt>
<wgt id='1593'> +2.6532094e+11 </wgt>
<wgt id='1594'> +2.6707530e+11 </wgt>
<wgt id='1595'> +2.6393812e+11 </wgt>
<wgt id='1596'> +2.6991286e+11 </wgt>
<wgt id='1597'> +2.6797581e+11 </wgt>
<wgt id='1598'> +2.6818367e+11 </wgt>
<wgt id='1599'> +2.6343565e+11 </wgt>
<wgt id='1600'> +2.7072037e+11 </wgt>
<wgt id='1601'> +2.6836357e+11 </wgt>
<wgt id='1602'> +2.6627642e+11 </wgt>
<wgt id='1603'> +2.7727829e+11 </wgt>
<wgt id='1604'> +2.6620323e+11 </wgt>
</rwgt>
</event>
<event>
 9      1 +2.8343000e+11 1.39999900e+03 7.81738600e-03 7.88881200e-02
       21 -1    0    0  504  503 +0.0000000000e+00 +0.0000000000e+00 +5.0113716292e+02 5.0113716292e+02 0.0000000000e+00 0.0000e+00 1.0000e+00
       21 -1    0    0  503  504 -0.0000000000e+00 -0.0000000000e+00 -9.7777500630e+02 9.7777500630e+02 0.0000000000e+00 0.0000e+00 1.0000e+00
       45  2    1    2    0    0 -5.6843418861e-14 +0.0000000000e+00 -4.7663784338e+02 1.4789121692e+03 1.3999991323e+03 0.0000e+00 0.0000e+00
       25  2    3    3    0    0 -3.3450368030e+02 +2.1298380840e+02 -8.3763407172e+02 9.3515385800e+02 1.2500834069e+02 0.0000e+00 0.0000e+00
       35  2    3    3    0    0 +3.3450368030e+02 -2.1298380840e+02 +3.6099622834e+02 5.4375831122e+02 9.0000052050e+01 0.0000e+00 0.0000e+00
        5  1    5    5  501    0 +6.1311279166e+01 -1.5708764910e+01 +2.5910505391e+01 6.8519707629e+01 4.2140000000e+00 0.0000e+00 1.0000e+00
       -5  1    5    5    0  501 +2.7319240113e+02 -1.9727504349e+02 +3.3508572295e+02 4.7523860359e+02 4.2140000000e+00 0.0000e+00 1.0000e+00
        5  1    4    4  502    0 -2.7341361740e+02 +1.1297159683e+02 -6.4522210183e+02 7.0982174266e+02 4.2140000000e+00 0.0000e+00 -1.0000e+00
       -5  1    4    4    0  502 -6.1090062900e+01 +1.0001221157e+02 -1.9241196989e+02 2.2533211533e+02 4.2140000000e+00 0.0000e+00 -1.0000e+00
<mgrwt>
<rscale>  0 0.13999991E+04</rscale>
<asrwt>0</asrwt>
<pdfrwt beam="1">  1       21 0.77098025E-01 0.13999991E+04</pdfrwt>
<pdfrwt beam="2">  1       21 0.15042692E+00 0.13999991E+04</pdfrwt>
<totfact> 0.32660642E+02</totfact>
</mgrwt>
<rwgt>
<wgt id='1001'> +2.8343000e+11 </wgt>
<wgt id='1002'> +3.1002948e+11 </wgt>
<wgt id='1003'> +3.1002215e+11 </wgt>
<wgt id='1004'> +3.5002846e+11 </wgt>
<wgt id='1005'> +2.8343000e+11 </wgt>
<wgt id='1006'> +2.8343000e+11 </wgt>
<wgt id='1007'> +3.1002948e+11 </wgt>
<wgt id='1008'> +3.1002215e+11 </wgt>
<wgt id='1009'> +3.5002846e+11 </wgt>
<wgt id='1010'> +2.8343000e+11 </wgt>
<wgt id='1011'> +2.8343000e+11 </wgt>
<wgt id='1012'> +3.1002948e+11 </wgt>
<wgt id='1013'> +3.1002215e+11 </wgt>
<wgt id='1014'> +3.5002846e+11 </wgt>
<wgt id='1015'> +2.8343000e+11 </wgt>
<wgt id='1016'> +2.5438858e+11 </wgt>
<wgt id='1017'> +2.7671646e+11 </wgt>
<wgt id='1018'> +2.7671035e+11 </wgt>
<wgt id='1019'> +3.1002215e+11 </wgt>
<wgt id='1020'> +2.5438858e+11 </wgt>
<wgt id='1021'> +2.5438858e+11 </wgt>
<wgt id='1022'> +2.7671646e+11 </wgt>
<wgt id='1023'> +2.7671035e+11 </wgt>
<wgt id='1024'> +3.1002215e+11 </wgt>
<wgt id='1025'> +2.5438858e+11 </wgt>
<wgt id='1026'> +2.5438858e+11 </wgt>
<wgt id='1027'> +2.7671646e+11 </wgt>
<wgt id='1028'> +2.7671035e+11 </wgt>
<wgt id='1029'> +3.1002215e+11 </wgt>
<wgt id='1030'> +2.5438858e+11 </wgt>
<wgt id='1031'> +3.1807858e+11 </wgt>
<wgt id='1032'> +3.5003728e+11 </wgt>
<wgt id='1033'> +3.5002846e+11 </wgt>
<wgt id='1034'> +3.9869468e+11 </wgt>
<wgt id='1035'> +3.1807858e+11 </wgt>
<wgt id='1036'> +3.1807858e+11 </wgt>
<wgt id='1037'> +3.5003728e+11 </wgt>
<wgt id='1038'> +3.5002846e+11 </wgt>
<wgt id='1039'> +3.9869468e+11 </wgt>
<wgt id='1040'> +3.1807858e+11 </wgt>
<wgt id='1041'> +3.1807858e+11 </wgt>
<wgt id='1042'> +3.5003728e+11 </wgt>
<wgt id='1043'> +3.5002846e+11 </wgt>
<wgt id='1044'> +3.9869468e+11 </wgt>
<wgt id='1045'> +3.1807858e+11 </wgt>
<wgt id='1046'> +2.8343000e+11 </wgt>
<wgt id='1047'> +2.8343000e+11 </wgt>
<wgt id='1048'> +2.8343000e+11 </wgt>
<wgt id='1049'> +2.8258863e+11 </wgt>
<wgt id='1050'> +2.8320234e+11 </wgt>
<wgt id='1051'> +2.8339828e+11 </wgt>
<wgt id='1052'> +2.8433204e+11 </wgt>
<wgt id='1053'> +2.8178219e+11 </wgt>
<wgt id='1054'> +2.8376694e+11 </wgt>
<wgt id='1055'> +2.8225250e+11 </wgt>
<wgt id='1056'> +2.8202089e+11 </wgt>
<wgt id='1057'> +2.8388155e+11 </wgt>
<wgt id='1058'> +2.8293715e+11 </wgt>
<wgt id='1059'> +2.8525016e+11 </wgt>
<wgt id='1060'> +2.8373887e+11 </wgt>
<wgt id='1061'> +2.8403444e+11 </wgt>
<wgt id='1062'> +2.8416703e+11 </wgt>
<wgt id='1063'> +2.8413733e+11 </wgt>
<wgt id='1064'> +2.8428006e+11 </wgt>
<wgt id='1065'> +2.8471541e+11 </wgt>
<wgt id='1066'> +2.8147180e+11 </wgt>
<wgt id='1067'> +2.8080171e+11 </wgt>
<wgt id='1068'> +2.8340186e+11 </wgt>
<wgt id='1069'> +2.8260423e+11 </wgt>
<wgt id='1070'> +2.8374102e+11 </wgt>
<wgt id='1071'> +2.8389312e+11 </wgt>
<wgt id='1072'> +2.8161076e+11 </wgt>
<wgt id='1073'> +2.8378384e+11 </wgt>
<wgt id='1074'> +2.8334014e+11 </wgt>
<wgt id='1075'> +2.8449889e+11 </wgt>
<wgt id='1076'> +2.8208750e+11 </wgt>
<wgt id='1077'> +2.8235349e+11 </wgt>
<wgt id='1078'> +2.8409162e+11 </wgt>
<wgt id='1079'> +2.8207582e+11 </wgt>
<wgt id='1080'> +2.8306669e+11 </wgt>
<wgt id='1081'> +2.8295009e+11 </wgt>
<wgt id='1082'> +2.8215196e+11 </wgt>
<wgt id='1083'> +2.8384410e+11 </wgt>
<wgt id='1084'> +2.8396531e+11 </wgt>
<wgt id='1085'> +2.8277949e+11 </wgt>
<wgt id='1086'> +2.8303211e+11 </wgt>
<wgt id='1087'> +2.8310805e+11 </wgt>
<wgt id='1088'> +2.8293284e+11 </wgt>
<wgt id='1089'> +2.8271627e+11 </wgt>
<wgt id='1090'> +2.8413985e+11 </wgt>
<wgt id='1091'> +2.8352184e+11 </wgt>
<wgt id='1092'> +2.8372126e+11 </wgt>
<wgt id='1093'> +2.8332095e+11 </wgt>
<wgt id='1094'> +2.8279297e+11 </wgt>
<wgt id='1095'> +2.8360061e+11 </wgt>
<wgt id='1096'> +2.8337069e+11 </wgt>
<wgt id='1097'> +2.8301680e+11 </wgt>
<wgt id='1098'> +2.8309644e+11 </wgt>
<wgt id='1099'> +2.8315805e+11 </wgt>
<wgt id='1100'> +2.8402328e+11 </wgt>
<wgt id='1101'> +2.8342853e+11 </wgt>
<wgt id='1102'> +2.8329582e+11 </wgt>
<wgt id='1103'> +2.8303536e+11 </wgt>
<wgt id='1104'> +2.8315208e+11 </wgt>
<wgt id='1105'> +2.8354254e+11 </wgt>
<wgt id='1106'> +2.8375317e+11 </wgt>
<wgt id='1107'> +2.8338771e+11 </wgt>
<wgt id='1108'> +2.8330926e+11 </wgt>
<wgt id='1109'> +2.8321771e+11 </wgt>
<wgt id='1110'> +2.8373887e+11 </wgt>
<wgt id='1111'> +2.8356453e+11 </wgt>
<wgt id='1112'> +2.8338618e+11 </wgt>
<wgt id='1113'> +2.8374641e+11 </wgt>
<wgt id='1114'> +2.8311268e+11 </wgt>
<wgt id='1115'> +2.8317677e+11 </wgt>
<wgt id='1116'> +2.8382648e+11 </wgt>
<wgt id='1117'> +2.8336636e+11 </wgt>
<wgt id='1118'> +2.8355624e+11 </wgt>
<wgt id='1119'> +2.8319979e+11 </wgt>
<wgt id='1120'> +2.8324672e+11 </wgt>
<wgt id='1121'> +2.8349563e+11 </wgt>
<wgt id='1122'> +2.8319882e+11 </wgt>
<wgt id='1123'> +2.8337438e+11 </wgt>
<wgt id='1124'> +2.8338618e+11 </wgt>
<wgt id='1125'> +2.8359620e+11 </wgt>
<wgt id='1126'> +2.8354029e+11 </wgt>
<wgt id='1127'> +2.8331975e+11 </wgt>
<wgt id='1128'> +2.8344370e+11 </wgt>
<wgt id='1129'> +2.8335935e+11 </wgt>
<wgt id='1130'> +2.8346830e+11 </wgt>
<wgt id='1131'> +2.8375741e+11 </wgt>
<wgt id='1132'> +2.8335016e+11 </wgt>
<wgt id='1133'> +2.8351726e+11 </wgt>
<wgt id='1134'> +2.8341466e+11 </wgt>
<wgt id='1135'> +2.8346991e+11 </wgt>
<wgt id='1136'> +2.8337585e+11 </wgt>
<wgt id='1137'> +2.8326705e+11 </wgt>
<wgt id='1138'> +2.8355488e+11 </wgt>
<wgt id='1139'> +2.8348378e+11 </wgt>
<wgt id='1140'> +2.8364322e+11 </wgt>
<wgt id='1141'> +2.8327040e+11 </wgt>
<wgt id='1142'> +2.8350313e+11 </wgt>
<wgt id='1143'> +2.8359804e+11 </wgt>
<wgt id='1144'> +2.8333842e+11 </wgt>
<wgt id='1145'> +2.8356454e+11 </wgt>
<wgt id='1146'> +2.8343509e+11 </wgt>
<wgt id='1147'> +2.8348000e+11 </wgt>
<wgt id='1148'> +2.8343000e+11 </wgt>
<wgt id='1149'> +2.8343000e+11 </wgt>
<wgt id='1150'> +2.9543113e+11 </wgt>
<wgt id='1151'> +2.7916509e+11 </wgt>
<wgt id='1152'> +2.8092724e+11 </wgt>
<wgt id='1153'> +2.8669832e+11 </wgt>
<wgt id='1154'> +2.8486656e+11 </wgt>
<wgt id='1155'> +2.9062668e+11 </wgt>
<wgt id='1156'> +2.7713056e+11 </wgt>
<wgt id='1157'> +2.7507733e+11 </wgt>
<wgt id='1158'> +2.7726537e+11 </wgt>
<wgt id='1159'> +2.9879926e+11 </wgt>
<wgt id='1160'> +2.8355558e+11 </wgt>
<wgt id='1161'> +2.8592780e+11 </wgt>
<wgt id='1162'> +2.8136469e+11 </wgt>
<wgt id='1163'> +2.8629023e+11 </wgt>
<wgt id='1164'> +2.7047743e+11 </wgt>
<wgt id='1165'> +2.7792844e+11 </wgt>
<wgt id='1166'> +2.8379776e+11 </wgt>
<wgt id='1167'> +2.7865677e+11 </wgt>
<wgt id='1168'> +2.7541462e+11 </wgt>
<wgt id='1169'> +2.7570043e+11 </wgt>
<wgt id='1170'> +2.8105414e+11 </wgt>
<wgt id='1171'> +2.7296690e+11 </wgt>
<wgt id='1172'> +2.7611594e+11 </wgt>
<wgt id='1173'> +2.8631995e+11 </wgt>
<wgt id='1174'> +2.7800333e+11 </wgt>
<wgt id='1175'> +2.7688223e+11 </wgt>
<wgt id='1176'> +2.8636039e+11 </wgt>
<wgt id='1177'> +2.7833059e+11 </wgt>
<wgt id='1178'> +2.8317555e+11 </wgt>
<wgt id='1179'> +2.8131809e+11 </wgt>
<wgt id='1180'> +2.8967504e+11 </wgt>
<wgt id='1181'> +2.8268451e+11 </wgt>
<wgt id='1182'> +2.8046371e+11 </wgt>
<wgt id='1183'> +2.9256799e+11 </wgt>
<wgt id='1184'> +2.8217556e+11 </wgt>
<wgt id='1185'> +2.8525541e+11 </wgt>
<wgt id='1186'> +2.7485569e+11 </wgt>
<wgt id='1187'> +2.8463870e+11 </wgt>
<wgt id='1188'> +2.8376479e+11 </wgt>
<wgt id='1189'> +2.8347434e+11 </wgt>
<wgt id='1190'> +2.8243745e+11 </wgt>
<wgt id='1191'> +2.9256355e+11 </wgt>
<wgt id='1192'> +2.9011814e+11 </wgt>
<wgt id='1193'> +2.9302638e+11 </wgt>
<wgt id='1194'> +2.8252041e+11 </wgt>
<wgt id='1195'> +2.8375975e+11 </wgt>
<wgt id='1196'> +2.9186694e+11 </wgt>
<wgt id='1197'> +2.9226356e+11 </wgt>
<wgt id='1198'> +2.8047750e+11 </wgt>
<wgt id='1199'> +2.8608634e+11 </wgt>
<wgt id='1200'> +2.8480796e+11 </wgt>
<wgt id='1201'> +2.7986503e+11 </wgt>
<wgt id='1202'> +2.8749365e+11 </wgt>
<wgt id='1203'> +2.7941414e+11 </wgt>
<wgt id='1204'> +2.8525533e+11 </wgt>
<wgt id='1205'> +2.8401349e+11 </wgt>
<wgt id='1206'> +2.7813528e+11 </wgt>
<wgt id='1207'> +2.9183037e+11 </wgt>
<wgt id='1208'> +2.7142269e+11 </wgt>
<wgt id='1209'> +2.8108999e+11 </wgt>
<wgt id='1210'> +2.8323991e+11 </wgt>
<wgt id='1211'> +2.8555856e+11 </wgt>
<wgt id='1212'> +2.8317067e+11 </wgt>
<wgt id='1213'> +2.9107252e+11 </wgt>
<wgt id='1214'> +2.7638154e+11 </wgt>
<wgt id='1215'> +2.8838524e+11 </wgt>
<wgt id='1216'> +2.8422527e+11 </wgt>
<wgt id='1217'> +2.7659711e+11 </wgt>
<wgt id='1218'> +2.8469446e+11 </wgt>
<wgt id='1219'> +2.9384228e+11 </wgt>
<wgt id='1220'> +2.7830262e+11 </wgt>
<wgt id='1221'> +2.7590265e+11 </wgt>
<wgt id='1222'> +2.7927954e+11 </wgt>
<wgt id='1223'> +2.7286112e+11 </wgt>
<wgt id='1224'> +2.8319911e+11 </wgt>
<wgt id='1225'> +2.8834560e+11 </wgt>
<wgt id='1226'> +2.8840689e+11 </wgt>
<wgt id='1227'> +2.7680780e+11 </wgt>
<wgt id='1228'> +2.8175829e+11 </wgt>
<wgt id='1229'> +3.0203180e+11 </wgt>
<wgt id='1230'> +2.9182899e+11 </wgt>
<wgt id='1231'> +2.7792844e+11 </wgt>
<wgt id='1232'> +2.8789615e+11 </wgt>
<wgt id='1233'> +2.7705593e+11 </wgt>
<wgt id='1234'> +2.7680248e+11 </wgt>
<wgt id='1235'> +3.0089938e+11 </wgt>
<wgt id='1236'> +2.7689746e+11 </wgt>
<wgt id='1237'> +2.8910262e+11 </wgt>
<wgt id='1238'> +2.8590788e+11 </wgt>
<wgt id='1239'> +2.8872498e+11 </wgt>
<wgt id='1240'> +2.8190423e+11 </wgt>
<wgt id='1241'> +2.8347595e+11 </wgt>
<wgt id='1242'> +2.8012276e+11 </wgt>
<wgt id='1243'> +2.8717986e+11 </wgt>
<wgt id='1244'> +2.8352061e+11 </wgt>
<wgt id='1245'> +2.8043562e+11 </wgt>
<wgt id='1246'> +3.0573400e+11 </wgt>
<wgt id='1247'> +2.8231532e+11 </wgt>
<wgt id='1248'> +2.7402147e+11 </wgt>
<wgt id='1249'> +2.7648727e+11 </wgt>
<wgt id='1250'> +2.9254300e+11 </wgt>
<wgt id='1251'> +2.9999457e+11 </wgt>
<wgt id='1252'> +2.8796883e+11 </wgt>
<wgt id='1253'> +2.8747686e+11 </wgt>
<wgt id='1254'> +2.8900347e+11 </wgt>
<wgt id='1255'> +3.0006966e+11 </wgt>
<wgt id='1256'> +2.9932832e+11 </wgt>
<wgt id='1257'> +2.9258135e+11 </wgt>
<wgt id='1258'> +2.9751022e+11 </wgt>
<wgt id='1259'> +2.9769251e+11 </wgt>
<wgt id='1260'> +3.2605888e+11 </wgt>
<wgt id='1261'> +3.1418804e+11 </wgt>
<wgt id='1262'> +2.9144744e+11 </wgt>
<wgt id='1263'> +2.9799853e+11 </wgt>
<wgt id='1264'> +3.0047730e+11 </wgt>
<wgt id='1265'> +2.9743250e+11 </wgt>
<wgt id='1266'> +2.9831505e+11 </wgt>
<wgt id='1267'> +3.2671615e+11 </wgt>
<wgt id='1268'> +2.9284496e+11 </wgt>
<wgt id='1269'> +2.8749374e+11 </wgt>
<wgt id='1270'> +2.9657216e+11 </wgt>
<wgt id='1271'> +2.7512177e+11 </wgt>
<wgt id='1272'> +2.9353067e+11 </wgt>
<wgt id='1273'> +2.9162917e+11 </wgt>
<wgt id='1274'> +2.8723187e+11 </wgt>
<wgt id='1275'> +2.9733672e+11 </wgt>
<wgt id='1276'> +2.9824712e+11 </wgt>
<wgt id='1277'> +2.9341203e+11 </wgt>
<wgt id='1278'> +2.9251235e+11 </wgt>
<wgt id='1279'> +2.8097164e+11 </wgt>
<wgt id='1280'> +2.9045089e+11 </wgt>
<wgt id='1281'> +2.8573497e+11 </wgt>
<wgt id='1282'> +2.9654381e+11 </wgt>
<wgt id='1283'> +3.0076274e+11 </wgt>
<wgt id='1284'> +3.1313869e+11 </wgt>
<wgt id='1285'> +3.0857910e+11 </wgt>
<wgt id='1286'> +3.2932566e+11 </wgt>
<wgt id='1287'> +3.0442794e+11 </wgt>
<wgt id='1288'> +3.2691196e+11 </wgt>
<wgt id='1289'> +3.1360250e+11 </wgt>
<wgt id='1290'> +3.1208640e+11 </wgt>
<wgt id='1291'> +2.7839058e+11 </wgt>
<wgt id='1292'> +2.9964858e+11 </wgt>
<wgt id='1293'> +3.0182871e+11 </wgt>
<wgt id='1294'> +3.1719221e+11 </wgt>
<wgt id='1295'> +3.0393887e+11 </wgt>
<wgt id='1296'> +3.1988314e+11 </wgt>
<wgt id='1297'> +2.9444709e+11 </wgt>
<wgt id='1298'> +2.8812210e+11 </wgt>
<wgt id='1299'> +3.0086792e+11 </wgt>
<wgt id='1300'> +2.8822573e+11 </wgt>
<wgt id='1301'> +2.8014453e+11 </wgt>
<wgt id='1302'> +2.8035286e+11 </wgt>
<wgt id='1303'> +3.0024514e+11 </wgt>
<wgt id='1304'> +3.1274632e+11 </wgt>
<wgt id='1305'> +2.9886332e+11 </wgt>
<wgt id='1306'> +3.0593680e+11 </wgt>
<wgt id='1307'> +2.9892584e+11 </wgt>
<wgt id='1308'> +3.2738226e+11 </wgt>
<wgt id='1309'> +2.9776088e+11 </wgt>
<wgt id='1310'> +3.0286974e+11 </wgt>
<wgt id='1311'> +3.0510513e+11 </wgt>
<wgt id='1312'> +3.0318740e+11 </wgt>
<wgt id='1313'> +2.9929973e+11 </wgt>
<wgt id='1314'> +3.0133590e+11 </wgt>
<wgt id='1315'> +2.8638838e+11 </wgt>
<wgt id='1316'> +2.9952095e+11 </wgt>
<wgt id='1317'> +3.0440290e+11 </wgt>
<wgt id='1318'> +2.8953667e+11 </wgt>
<wgt id='1319'> +3.0343505e+11 </wgt>
<wgt id='1320'> +3.1213479e+11 </wgt>
<wgt id='1321'> +2.9603732e+11 </wgt>
<wgt id='1322'> +3.0024042e+11 </wgt>
<wgt id='1323'> +2.9631800e+11 </wgt>
<wgt id='1324'> +3.0327283e+11 </wgt>
<wgt id='1325'> +3.1174567e+11 </wgt>
<wgt id='1326'> +3.0570280e+11 </wgt>
<wgt id='1327'> +3.0055765e+11 </wgt>
<wgt id='1328'> +3.0017912e+11 </wgt>
<wgt id='1329'> +2.9828874e+11 </wgt>
<wgt id='1330'> +2.8924805e+11 </wgt>
<wgt id='1331'> +3.2070617e+11 </wgt>
<wgt id='1332'> +2.8970625e+11 </wgt>
<wgt id='1333'> +3.0166719e+11 </wgt>
<wgt id='1334'> +3.1491379e+11 </wgt>
<wgt id='1335'> +2.9327608e+11 </wgt>
<wgt id='1336'> +3.0704434e+11 </wgt>
<wgt id='1337'> +3.0895802e+11 </wgt>
<wgt id='1338'> +2.8952352e+11 </wgt>
<wgt id='1339'> +3.1910417e+11 </wgt>
<wgt id='1340'> +3.0336047e+11 </wgt>
<wgt id='1341'> +3.1026148e+11 </wgt>
<wgt id='1342'> +3.1161341e+11 </wgt>
<wgt id='1343'> +3.1003401e+11 </wgt>
<wgt id='1344'> +3.0872238e+11 </wgt>
<wgt id='1345'> +2.7517892e+11 </wgt>
<wgt id='1346'> +3.0152475e+11 </wgt>
<wgt id='1347'> +2.8882275e+11 </wgt>
<wgt id='1348'> +2.8922846e+11 </wgt>
<wgt id='1349'> +2.8868735e+11 </wgt>
<wgt id='1350'> +3.0316941e+11 </wgt>
<wgt id='1351'> +2.9524388e+11 </wgt>
<wgt id='1352'> +3.0195354e+11 </wgt>
<wgt id='1353'> +2.9859931e+11 </wgt>
<wgt id='1354'> +3.0802726e+11 </wgt>
<wgt id='1355'> +2.7561950e+11 </wgt>
<wgt id='1356'> +2.7832850e+11 </wgt>
<wgt id='1357'> +2.7615370e+11 </wgt>
<wgt id='1358'> +2.7337226e+11 </wgt>
<wgt id='1359'> +2.7598777e+11 </wgt>
<wgt id='1360'> +2.6961466e+11 </wgt>
<wgt id='1361'> +2.7520648e+11 </wgt>
<wgt id='1362'> +2.7952013e+11 </wgt>
<wgt id='1363'> +2.7073621e+11 </wgt>
<wgt id='1364'> +2.8106288e+11 </wgt>
<wgt id='1365'> +2.7336474e+11 </wgt>
<wgt id='1366'> +2.7422628e+11 </wgt>
<wgt id='1367'> +2.7625019e+11 </wgt>
<wgt id='1368'> +2.7581106e+11 </wgt>
<wgt id='1369'> +2.7903990e+11 </wgt>
<wgt id='1370'> +2.7365319e+11 </wgt>
<wgt id='1371'> +2.7462690e+11 </wgt>
<wgt id='1372'> +2.7925756e+11 </wgt>
<wgt id='1373'> +2.7900129e+11 </wgt>
<wgt id='1374'> +2.6764626e+11 </wgt>
<wgt id='1375'> +2.7537251e+11 </wgt>
<wgt id='1376'> +2.7580872e+11 </wgt>
<wgt id='1377'> +2.7598483e+11 </wgt>
<wgt id='1378'> +2.7276630e+11 </wgt>
<wgt id='1379'> +2.7409836e+11 </wgt>
<wgt id='1380'> +2.7360567e+11 </wgt>
<wgt id='1381'> +2.8073247e+11 </wgt>
<wgt id='1382'> +2.7502460e+11 </wgt>
<wgt id='1383'> +2.7468199e+11 </wgt>
<wgt id='1384'> +2.7329820e+11 </wgt>
<wgt id='1385'> +2.7311556e+11 </wgt>
<wgt id='1386'> +2.7633868e+11 </wgt>
<wgt id='1387'> +2.7429817e+11 </wgt>
<wgt id='1388'> +2.7144041e+11 </wgt>
<wgt id='1389'> +2.7435895e+11 </wgt>
<wgt id='1390'> +2.7577458e+11 </wgt>
<wgt id='1391'> +2.7347207e+11 </wgt>
<wgt id='1392'> +2.7326240e+11 </wgt>
<wgt id='1393'> +2.7456526e+11 </wgt>
<wgt id='1394'> +2.7364256e+11 </wgt>
<wgt id='1395'> +2.7113514e+11 </wgt>
<wgt id='1396'> +2.7640647e+11 </wgt>
<wgt id='1397'> +2.7637104e+11 </wgt>
<wgt id='1398'> +2.7680377e+11 </wgt>
<wgt id='1399'> +2.7203966e+11 </wgt>
<wgt id='1400'> +2.7203346e+11 </wgt>
<wgt id='1401'> +2.7504145e+11 </wgt>
<wgt id='1402'> +2.7864259e+11 </wgt>
<wgt id='1403'> +2.8017247e+11 </wgt>
<wgt id='1404'> +2.7517733e+11 </wgt>
<wgt id='1405'> +2.8179754e+11 </wgt>
<wgt id='1406'> +2.7621980e+11 </wgt>
<wgt id='1407'> +2.7607707e+11 </wgt>
<wgt id='1408'> +2.7956372e+11 </wgt>
<wgt id='1409'> +2.7281151e+11 </wgt>
<wgt id='1410'> +2.7134649e+11 </wgt>
<wgt id='1411'> +2.7532760e+11 </wgt>
<wgt id='1412'> +2.7402512e+11 </wgt>
<wgt id='1413'> +2.7319013e+11 </wgt>
<wgt id='1414'> +2.7776969e+11 </wgt>
<wgt id='1415'> +2.8016071e+11 </wgt>
<wgt id='1416'> +2.7832559e+11 </wgt>
<wgt id='1417'> +2.7030396e+11 </wgt>
<wgt id='1418'> +2.7656923e+11 </wgt>
<wgt id='1419'> +2.7934480e+11 </wgt>
<wgt id='1420'> +2.7434997e+11 </wgt>
<wgt id='1421'> +2.8169958e+11 </wgt>
<wgt id='1422'> +2.6850893e+11 </wgt>
<wgt id='1423'> +2.8066777e+11 </wgt>
<wgt id='1424'> +2.7678468e+11 </wgt>
<wgt id='1425'> +2.7609380e+11 </wgt>
<wgt id='1426'> +2.7844751e+11 </wgt>
<wgt id='1427'> +2.7536054e+11 </wgt>
<wgt id='1428'> +2.7522534e+11 </wgt>
<wgt id='1429'> +2.7320555e+11 </wgt>
<wgt id='1430'> +2.7130251e+11 </wgt>
<wgt id='1431'> +2.7063384e+11 </wgt>
<wgt id='1432'> +2.7635342e+11 </wgt>
<wgt id='1433'> +2.7509575e+11 </wgt>
<wgt id='1434'> +2.8282047e+11 </wgt>
<wgt id='1435'> +2.7462193e+11 </wgt>
<wgt id='1436'> +2.7946182e+11 </wgt>
<wgt id='1437'> +2.7711422e+11 </wgt>
<wgt id='1438'> +2.7424846e+11 </wgt>
<wgt id='1439'> +2.7775490e+11 </wgt>
<wgt id='1440'> +2.7930328e+11 </wgt>
<wgt id='1441'> +2.7437746e+11 </wgt>
<wgt id='1442'> +2.8199531e+11 </wgt>
<wgt id='1443'> +2.7352603e+11 </wgt>
<wgt id='1444'> +2.7564830e+11 </wgt>
<wgt id='1445'> +2.7768487e+11 </wgt>
<wgt id='1446'> +2.7929151e+11 </wgt>
<wgt id='1447'> +2.7237666e+11 </wgt>
<wgt id='1448'> +2.7801843e+11 </wgt>
<wgt id='1449'> +2.7771991e+11 </wgt>
<wgt id='1450'> +2.7434537e+11 </wgt>
<wgt id='1451'> +2.7700335e+11 </wgt>
<wgt id='1452'> +2.7825576e+11 </wgt>
<wgt id='1453'> +2.7889304e+11 </wgt>
<wgt id='1454'> +2.6846604e+11 </wgt>
<wgt id='1455'> +2.7468013e+11 </wgt>
<wgt id='1456'> +2.7475108e+11 </wgt>
<wgt id='1457'> +2.7449682e+11 </wgt>
<wgt id='1458'> +2.7860662e+11 </wgt>
<wgt id='1459'> +3.0672533e+11 </wgt>
<wgt id='1460'> +3.0195729e+11 </wgt>
<wgt id='1461'> +3.5220639e+11 </wgt>
<wgt id='1462'> +2.9880932e+11 </wgt>
<wgt id='1463'> +2.9904999e+11 </wgt>
<wgt id='1464'> +2.9850065e+11 </wgt>
<wgt id='1465'> +2.9887218e+11 </wgt>
<wgt id='1466'> +2.9875188e+11 </wgt>
<wgt id='1467'> +2.9895798e+11 </wgt>
<wgt id='1468'> +2.9856539e+11 </wgt>
<wgt id='1469'> +2.9836609e+11 </wgt>
<wgt id='1470'> +2.9916930e+11 </wgt>
<wgt id='1471'> +2.9927747e+11 </wgt>
<wgt id='1472'> +2.9832713e+11 </wgt>
<wgt id='1473'> +2.9996841e+11 </wgt>
<wgt id='1474'> +2.9769603e+11 </wgt>
<wgt id='1475'> +2.9991277e+11 </wgt>
<wgt id='1476'> +2.9802701e+11 </wgt>
<wgt id='1477'> +2.9824543e+11 </wgt>
<wgt id='1478'> +3.0012657e+11 </wgt>
<wgt id='1479'> +2.9830035e+11 </wgt>
<wgt id='1480'> +2.9916581e+11 </wgt>
<wgt id='1481'> +2.9836395e+11 </wgt>
<wgt id='1482'> +2.9941030e+11 </wgt>
<wgt id='1483'> +2.9889951e+11 </wgt>
<wgt id='1484'> +2.9868175e+11 </wgt>
<wgt id='1485'> +2.9901410e+11 </wgt>
<wgt id='1486'> +2.9831619e+11 </wgt>
<wgt id='1487'> +2.9906906e+11 </wgt>
<wgt id='1488'> +2.9848364e+11 </wgt>
<wgt id='1489'> +2.9845348e+11 </wgt>
<wgt id='1490'> +2.9977406e+11 </wgt>
<wgt id='1491'> +3.0372881e+11 </wgt>
<wgt id='1492'> +2.9606484e+11 </wgt>
<wgt id='1493'> +2.9528462e+11 </wgt>
<wgt id='1494'> +3.0985870e+11 </wgt>
<wgt id='1495'> +2.9813538e+11 </wgt>
<wgt id='1496'> +2.9953238e+11 </wgt>
<wgt id='1497'> +2.9900790e+11 </wgt>
<wgt id='1498'> +2.9853788e+11 </wgt>
<wgt id='1499'> +3.0071352e+11 </wgt>
<wgt id='1500'> +2.9776802e+11 </wgt>
<wgt id='1501'> +2.9925493e+11 </wgt>
<wgt id='1502'> +2.9762884e+11 </wgt>
<wgt id='1503'> +2.9549499e+11 </wgt>
<wgt id='1504'> +3.0236772e+11 </wgt>
<wgt id='1505'> +2.9976336e+11 </wgt>
<wgt id='1506'> +2.9788679e+11 </wgt>
<wgt id='1507'> +3.0050118e+11 </wgt>
<wgt id='1508'> +2.9719271e+11 </wgt>
<wgt id='1509'> +2.9942194e+11 </wgt>
<wgt id='1510'> +2.9617764e+11 </wgt>
<wgt id='1511'> +2.9994734e+11 </wgt>
<wgt id='1512'> +2.9847365e+11 </wgt>
<wgt id='1513'> +2.9871881e+11 </wgt>
<wgt id='1514'> +2.9890288e+11 </wgt>
<wgt id='1515'> +3.0145553e+11 </wgt>
<wgt id='1516'> +2.9910555e+11 </wgt>
<wgt id='1517'> +2.9841139e+11 </wgt>
<wgt id='1518'> +2.9918540e+11 </wgt>
<wgt id='1519'> +2.9711370e+11 </wgt>
<wgt id='1520'> +3.0001483e+11 </wgt>
<wgt id='1521'> +2.9795641e+11 </wgt>
<wgt id='1522'> +2.9931261e+11 </wgt>
<wgt id='1523'> +3.0011914e+11 </wgt>
<wgt id='1524'> +3.0022918e+11 </wgt>
<wgt id='1525'> +2.9993905e+11 </wgt>
<wgt id='1526'> +2.9972469e+11 </wgt>
<wgt id='1527'> +2.9880932e+11 </wgt>
<wgt id='1528'> +2.9846353e+11 </wgt>
<wgt id='1529'> +2.9867268e+11 </wgt>
<wgt id='1530'> +2.9493389e+11 </wgt>
<wgt id='1531'> +2.9668739e+11 </wgt>
<wgt id='1532'> +2.9439658e+11 </wgt>
<wgt id='1533'> +2.9197448e+11 </wgt>
<wgt id='1534'> +2.9510020e+11 </wgt>
<wgt id='1535'> +2.9909461e+11 </wgt>
<wgt id='1536'> +2.9417173e+11 </wgt>
<wgt id='1537'> +2.9669380e+11 </wgt>
<wgt id='1538'> +2.9351768e+11 </wgt>
<wgt id='1539'> +3.0254456e+11 </wgt>
<wgt id='1540'> +2.9614922e+11 </wgt>
<wgt id='1541'> +2.9734989e+11 </wgt>
<wgt id='1542'> +2.9668192e+11 </wgt>
<wgt id='1543'> +2.9795694e+11 </wgt>
<wgt id='1544'> +2.9478472e+11 </wgt>
<wgt id='1545'> +2.9469070e+11 </wgt>
<wgt id='1546'> +2.9274345e+11 </wgt>
<wgt id='1547'> +2.9900276e+11 </wgt>
<wgt id='1548'> +2.9482157e+11 </wgt>
<wgt id='1549'> +2.9319596e+11 </wgt>
<wgt id='1550'> +2.9765031e+11 </wgt>
<wgt id='1551'> +2.9727089e+11 </wgt>
<wgt id='1552'> +2.9619243e+11 </wgt>
<wgt id='1553'> +2.9898225e+11 </wgt>
<wgt id='1554'> +2.9658373e+11 </wgt>
<wgt id='1555'> +2.9737090e+11 </wgt>
<wgt id='1556'> +2.9907504e+11 </wgt>
<wgt id='1557'> +2.9556403e+11 </wgt>
<wgt id='1558'> +2.9678314e+11 </wgt>
<wgt id='1559'> +2.9449516e+11 </wgt>
<wgt id='1560'> +2.9542390e+11 </wgt>
<wgt id='1561'> +2.9329669e+11 </wgt>
<wgt id='1562'> +2.9533263e+11 </wgt>
<wgt id='1563'> +2.9673320e+11 </wgt>
<wgt id='1564'> +2.9624820e+11 </wgt>
<wgt id='1565'> +2.9877977e+11 </wgt>
<wgt id='1566'> +2.9664128e+11 </wgt>
<wgt id='1567'> +3.0000129e+11 </wgt>
<wgt id='1568'> +2.9661197e+11 </wgt>
<wgt id='1569'> +2.9630730e+11 </wgt>
<wgt id='1570'> +3.0385612e+11 </wgt>
<wgt id='1571'> +2.9655516e+11 </wgt>
<wgt id='1572'> +2.9871742e+11 </wgt>
<wgt id='1573'> +3.0003060e+11 </wgt>
<wgt id='1574'> +2.6482407e+11 </wgt>
<wgt id='1575'> +2.6489569e+11 </wgt>
<wgt id='1576'> +2.6475613e+11 </wgt>
<wgt id='1577'> +2.6484238e+11 </wgt>
<wgt id='1578'> +2.6543283e+11 </wgt>
<wgt id='1579'> +2.6567415e+11 </wgt>
<wgt id='1580'> +2.6544609e+11 </wgt>
<wgt id='1581'> +2.6422660e+11 </wgt>
<wgt id='1582'> +2.6392786e+11 </wgt>
<wgt id='1583'> +2.6437161e+11 </wgt>
<wgt id='1584'> +2.6540375e+11 </wgt>
<wgt id='1585'> +2.6502450e+11 </wgt>
<wgt id='1586'> +2.6384597e+11 </wgt>
<wgt id='1587'> +2.6408067e+11 </wgt>
<wgt id='1588'> +2.6358955e+11 </wgt>
<wgt id='1589'> +2.6455591e+11 </wgt>
<wgt id='1590'> +2.6464718e+11 </wgt>
<wgt id='1591'> +2.6489487e+11 </wgt>
<wgt id='1592'> +2.6380112e+11 </wgt>
<wgt id='1593'> +2.6390746e+11 </wgt>
<wgt id='1594'> +2.6569098e+11 </wgt>
<wgt id='1595'> +2.6252009e+11 </wgt>
<wgt id='1596'> +2.6855559e+11 </wgt>
<wgt id='1597'> +2.6658162e+11 </wgt>
<wgt id='1598'> +2.6678347e+11 </wgt>
<wgt id='1599'> +2.6201917e+11 </wgt>
<wgt id='1600'> +2.6935290e+11 </wgt>
<wgt id='1601'> +2.6696564e+11 </wgt>
<wgt id='1602'> +2.6487437e+11 </wgt>
<wgt id='1603'> +2.7608914e+11 </wgt>
<wgt id='1604'> +2.6483364e+11 </wgt>
</rwgt>
</event>
<event>
 9      1 +2.8343000e+11 1.39999800e+03 7.81738600e-03 7.88881300e-02
       21 -1    0    0  504  503 +0.0000000000e+00 +0.0000000000e+00 +1.2245584874e+03 1.2245584874e+03 0.0000000000e+00 0.0000e+00 -1.0000e+00
       21 -1    0    0  503  504 -0.0000000000e+00 -0.0000000000e+00 -4.0014320262e+02 4.0014320262e+02 0.0000000000e+00 0.0000e+00 -1.0000e+00
       45  2    1    2    0    0 -3.5527136788e-15 -5.6843418861e-14 +8.2441528476e+02 1.6247016900e+03 1.3999982213e+03 0.0000e+00 0.0000e+00
       25  2    3    3    0    0 +1.3020609913e+00 -5.0986694906e+02 +9.5585486336e+02 1.0905270513e+03 1.2499891506e+02 0.0000e+00 0.0000e+00
       35  2    3    3    0    0 -1.3020609913e+00 +5.0986694906e+02 -1.3143957860e+02 5.3417463866e+02 9.0001003667e+01 0.0000e+00 0.0000e+00
        5  1    5    5  501    0 +2.9783903414e+01 +4.2465426044e+02 -1.2215724620e+02 4.4289781260e+02 4.2140000000e+00 0.0000e+00 1.0000e+00
       -5  1    5    5    0  501 -3.1085964406e+01 +8.5212688624e+01 -9.2823323981e+00 9.1276826064e+01 4.2140000000e+00 0.0000e+00 1.0000e+00
        5  1    4    4  502    0 -4.7387576528e+01 -8.8224175678e+01 +1.9659467780e+02 2.2067241042e+02 4.2140000000e+00 0.0000e+00 1.0000e+00
       -5  1    4    4    0  502 +4.8689637520e+01 -4.2164277339e+02 +7.5926018556e+02 8.6985464092e+02 4.2140000000e+00 0.0000e+00 1.0000e+00
<mgrwt>
<rscale>  0 0.13999982E+04</rscale>
<asrwt>0</asrwt>
<pdfrwt beam="1">  1       21 0.18839361E+00 0.13999982E+04</pdfrwt>
<pdfrwt beam="2">  1       21 0.61560493E-01 0.13999982E+04</pdfrwt>
<totfact> 0.27196072E+02</totfact>
</mgrwt>
<rwgt>
<wgt id='1001'> +2.8343000e+11 </wgt>
<wgt id='1002'> +2.9771711e+11 </wgt>
<wgt id='1003'> +2.9771281e+11 </wgt>
<wgt id='1004'> +3.3598213e+11 </wgt>
<wgt id='1005'> +2.8343000e+11 </wgt>
<wgt id='1006'> +2.8343000e+11 </wgt>
<wgt id='1007'> +2.9771711e+11 </wgt>
<wgt id='1008'> +2.9771281e+11 </wgt>
<wgt id='1009'> +3.3598213e+11 </wgt>
<wgt id='1010'> +2.8343000e+11 </wgt>
<wgt id='1011'> +2.8343000e+11 </wgt>
<wgt id='1012'> +2.9771711e+11 </wgt>
<wgt id='1013'> +2.9771281e+11 </wgt>
<wgt id='1014'> +3.3598213e+11 </wgt>
<wgt id='1015'> +2.8343000e+11 </wgt>
<wgt id='1016'> +2.5386723e+11 </wgt>
<wgt id='1017'> +2.6587739e+11 </wgt>
<wgt id='1018'> +2.6587380e+11 </wgt>
<wgt id='1019'> +2.9771281e+11 </wgt>
<wgt id='1020'> +2.5386722e+11 </wgt>
<wgt id='1021'> +2.5386723e+11 </wgt>
<wgt id='1022'> +2.6587739e+11 </wgt>
<wgt id='1023'> +2.6587380e+11 </wgt>
<wgt id='1024'> +2.9771281e+11 </wgt>
<wgt id='1025'> +2.5386722e+11 </wgt>
<wgt id='1026'> +2.5386723e+11 </wgt>
<wgt id='1027'> +2.6587739e+11 </wgt>
<wgt id='1028'> +2.6587380e+11 </wgt>
<wgt id='1029'> +2.9771281e+11 </wgt>
<wgt id='1030'> +2.5386722e+11 </wgt>
<wgt id='1031'> +3.1877517e+11 </wgt>
<wgt id='1032'> +3.3598730e+11 </wgt>
<wgt id='1033'> +3.3598213e+11 </wgt>
<wgt id='1034'> +3.8242296e+11 </wgt>
<wgt id='1035'> +3.1877517e+11 </wgt>
<wgt id='1036'> +3.1877517e+11 </wgt>
<wgt id='1037'> +3.3598730e+11 </wgt>
<wgt id='1038'> +3.3598213e+11 </wgt>
<wgt id='1039'> +3.8242296e+11 </wgt>
<wgt id='1040'> +3.1877517e+11 </wgt>
<wgt id='1041'> +3.1877517e+11 </wgt>
<wgt id='1042'> +3.3598730e+11 </wgt>
<wgt id='1043'> +3.3598213e+11 </wgt>
<wgt id='1044'> +3.8242296e+11 </wgt>
<wgt id='1045'> +3.1877517e+11 </wgt>
<wgt id='1046'> +2.8343000e+11 </wgt>
<wgt id='1047'> +2.8343000e+11 </wgt>
<wgt id='1048'> +2.8343000e+11 </wgt>
<wgt id='1049'> +2.8291189e+11 </wgt>
<wgt id='1050'> +2.8322502e+11 </wgt>
<wgt id='1051'> +2.8328968e+11 </wgt>
<wgt id='1052'> +2.8429315e+11 </wgt>
<wgt id='1053'> +2.8164324e+11 </wgt>
<wgt id='1054'> +2.8373194e+11 </wgt>
<wgt id='1055'> +2.8218623e+11 </wgt>
<wgt id='1056'> +2.8216068e+11 </wgt>
<wgt id='1057'> +2.8320942e+11 </wgt>
<wgt id='1058'> +2.8273984e+11 </wgt>
<wgt id='1059'> +2.8531562e+11 </wgt>
<wgt id='1060'> +2.8378992e+11 </wgt>
<wgt id='1061'> +2.8395234e+11 </wgt>
<wgt id='1062'> +2.8430281e+11 </wgt>
<wgt id='1063'> +2.8460555e+11 </wgt>
<wgt id='1064'> +2.8405553e+11 </wgt>
<wgt id='1065'> +2.8470025e+11 </wgt>
<wgt id='1066'> +2.8133839e+11 </wgt>
<wgt id='1067'> +2.8202175e+11 </wgt>
<wgt id='1068'> +2.8352511e+11 </wgt>
<wgt id='1069'> +2.8256964e+11 </wgt>
<wgt id='1070'> +2.8400909e+11 </wgt>
<wgt id='1071'> +2.8286627e+11 </wgt>
<wgt id='1072'> +2.8283670e+11 </wgt>
<wgt id='1073'> +2.8292320e+11 </wgt>
<wgt id='1074'> +2.8291269e+11 </wgt>
<wgt id='1075'> +2.8427236e+11 </wgt>
<wgt id='1076'> +2.8150804e+11 </wgt>
<wgt id='1077'> +2.8202066e+11 </wgt>
<wgt id='1078'> +2.8414116e+11 </wgt>
<wgt id='1079'> +2.8219697e+11 </wgt>
<wgt id='1080'> +2.8315751e+11 </wgt>
<wgt id='1081'> +2.8296011e+11 </wgt>
<wgt id='1082'> +2.8221895e+11 </wgt>
<wgt id='1083'> +2.8418696e+11 </wgt>
<wgt id='1084'> +2.8395685e+11 </wgt>
<wgt id='1085'> +2.8273470e+11 </wgt>
<wgt id='1086'> +2.8322984e+11 </wgt>
<wgt id='1087'> +2.8329864e+11 </wgt>
<wgt id='1088'> +2.8297004e+11 </wgt>
<wgt id='1089'> +2.8253569e+11 </wgt>
<wgt id='1090'> +2.8403458e+11 </wgt>
<wgt id='1091'> +2.8355858e+11 </wgt>
<wgt id='1092'> +2.8369264e+11 </wgt>
<wgt id='1093'> +2.8346601e+11 </wgt>
<wgt id='1094'> +2.8248330e+11 </wgt>
<wgt id='1095'> +2.8364403e+11 </wgt>
<wgt id='1096'> +2.8342885e+11 </wgt>
<wgt id='1097'> +2.8290384e+11 </wgt>
<wgt id='1098'> +2.8316444e+11 </wgt>
<wgt id='1099'> +2.8322029e+11 </wgt>
<wgt id='1100'> +2.8405520e+11 </wgt>
<wgt id='1101'> +2.8351035e+11 </wgt>
<wgt id='1102'> +2.8334017e+11 </wgt>
<wgt id='1103'> +2.8283342e+11 </wgt>
<wgt id='1104'> +2.8322646e+11 </wgt>
<wgt id='1105'> +2.8351746e+11 </wgt>
<wgt id='1106'> +2.8376622e+11 </wgt>
<wgt id='1107'> +2.8357432e+11 </wgt>
<wgt id='1108'> +2.8322861e+11 </wgt>
<wgt id='1109'> +2.8325824e+11 </wgt>
<wgt id='1110'> +2.8368422e+11 </wgt>
<wgt id='1111'> +2.8363451e+11 </wgt>
<wgt id='1112'> +2.8336560e+11 </wgt>
<wgt id='1113'> +2.8376954e+11 </wgt>
<wgt id='1114'> +2.8314221e+11 </wgt>
<wgt id='1115'> +2.8306226e+11 </wgt>
<wgt id='1116'> +2.8400386e+11 </wgt>
<wgt id='1117'> +2.8335838e+11 </wgt>
<wgt id='1118'> +2.8368268e+11 </wgt>
<wgt id='1119'> +2.8308449e+11 </wgt>
<wgt id='1120'> +2.8314208e+11 </wgt>
<wgt id='1121'> +2.8351134e+11 </wgt>
<wgt id='1122'> +2.8312544e+11 </wgt>
<wgt id='1123'> +2.8337850e+11 </wgt>
<wgt id='1124'> +2.8344235e+11 </wgt>
<wgt id='1125'> +2.8362504e+11 </wgt>
<wgt id='1126'> +2.8354965e+11 </wgt>
<wgt id='1127'> +2.8328211e+11 </wgt>
<wgt id='1128'> +2.8340379e+11 </wgt>
<wgt id='1129'> +2.8329526e+11 </wgt>
<wgt id='1130'> +2.8345992e+11 </wgt>
<wgt id='1131'> +2.8389099e+11 </wgt>
<wgt id='1132'> +2.8333479e+11 </wgt>
<wgt id='1133'> +2.8355678e+11 </wgt>
<wgt id='1134'> +2.8341388e+11 </wgt>
<wgt id='1135'> +2.8346392e+11 </wgt>
<wgt id='1136'> +2.8334107e+11 </wgt>
<wgt id='1137'> +2.8322827e+11 </wgt>
<wgt id='1138'> +2.8357293e+11 </wgt>
<wgt id='1139'> +2.8350967e+11 </wgt>
<wgt id='1140'> +2.8368789e+11 </wgt>
<wgt id='1141'> +2.8320980e+11 </wgt>
<wgt id='1142'> +2.8348117e+11 </wgt>
<wgt id='1143'> +2.8361677e+11 </wgt>
<wgt id='1144'> +2.8332702e+11 </wgt>
<wgt id='1145'> +2.8357925e+11 </wgt>
<wgt id='1146'> +2.8347770e+11 </wgt>
<wgt id='1147'> +2.8348737e+11 </wgt>
<wgt id='1148'> +2.8343000e+11 </wgt>
<wgt id='1149'> +2.8343000e+11 </wgt>
<wgt id='1150'> +2.9729886e+11 </wgt>
<wgt id='1151'> +2.7691347e+11 </wgt>
<wgt id='1152'> +2.7543099e+11 </wgt>
<wgt id='1153'> +2.8577072e+11 </wgt>
<wgt id='1154'> +2.8126545e+11 </wgt>
<wgt id='1155'> +2.9419518e+11 </wgt>
<wgt id='1156'> +2.7832906e+11 </wgt>
<wgt id='1157'> +2.7475399e+11 </wgt>
<wgt id='1158'> +2.7701615e+11 </wgt>
<wgt id='1159'> +2.9958215e+11 </wgt>
<wgt id='1160'> +2.8555457e+11 </wgt>
<wgt id='1161'> +2.8919463e+11 </wgt>
<wgt id='1162'> +2.8558918e+11 </wgt>
<wgt id='1163'> +2.8655711e+11 </wgt>
<wgt id='1164'> +2.7368327e+11 </wgt>
<wgt id='1165'> +2.7811631e+11 </wgt>
<wgt id='1166'> +2.8313776e+11 </wgt>
<wgt id='1167'> +2.7800038e+11 </wgt>
<wgt id='1168'> +2.7405728e+11 </wgt>
<wgt id='1169'> +2.7600791e+11 </wgt>
<wgt id='1170'> +2.8435797e+11 </wgt>
<wgt id='1171'> +2.7311486e+11 </wgt>
<wgt id='1172'> +2.7426044e+11 </wgt>
<wgt id='1173'> +2.8550644e+11 </wgt>
<wgt id='1174'> +2.7672158e+11 </wgt>
<wgt id='1175'> +2.7859168e+11 </wgt>
<wgt id='1176'> +2.8700654e+11 </wgt>
<wgt id='1177'> +2.7833780e+11 </wgt>
<wgt id='1178'> +2.8446965e+11 </wgt>
<wgt id='1179'> +2.8448109e+11 </wgt>
<wgt id='1180'> +2.8441150e+11 </wgt>
<wgt id='1181'> +2.9166819e+11 </wgt>
<wgt id='1182'> +2.8021544e+11 </wgt>
<wgt id='1183'> +2.8924814e+11 </wgt>
<wgt id='1184'> +2.8103761e+11 </wgt>
<wgt id='1185'> +2.8848096e+11 </wgt>
<wgt id='1186'> +2.7789833e+11 </wgt>
<wgt id='1187'> +2.8446858e+11 </wgt>
<wgt id='1188'> +2.8900235e+11 </wgt>
<wgt id='1189'> +2.8174889e+11 </wgt>
<wgt id='1190'> +2.8055525e+11 </wgt>
<wgt id='1191'> +2.9032412e+11 </wgt>
<wgt id='1192'> +2.8821466e+11 </wgt>
<wgt id='1193'> +2.9007856e+11 </wgt>
<wgt id='1194'> +2.7960025e+11 </wgt>
<wgt id='1195'> +2.8544854e+11 </wgt>
<wgt id='1196'> +2.9134970e+11 </wgt>
<wgt id='1197'> +2.9071925e+11 </wgt>
<wgt id='1198'> +2.8597657e+11 </wgt>
<wgt id='1199'> +2.8790618e+11 </wgt>
<wgt id='1200'> +2.8889954e+11 </wgt>
<wgt id='1201'> +2.8121703e+11 </wgt>
<wgt id='1202'> +2.8583276e+11 </wgt>
<wgt id='1203'> +2.8283596e+11 </wgt>
<wgt id='1204'> +2.8152606e+11 </wgt>
<wgt id='1205'> +2.8407096e+11 </wgt>
<wgt id='1206'> +2.8029827e+11 </wgt>
<wgt id='1207'> +2.9112704e+11 </wgt>
<wgt id='1208'> +2.7063971e+11 </wgt>
<wgt id='1209'> +2.8419971e+11 </wgt>
<wgt id='1210'> +2.8674077e+11 </wgt>
<wgt id='1211'> +2.8307198e+11 </wgt>
<wgt id='1212'> +2.8306118e+11 </wgt>
<wgt id='1213'> +2.8778447e+11 </wgt>
<wgt id='1214'> +2.7826666e+11 </wgt>
<wgt id='1215'> +2.8217461e+11 </wgt>
<wgt id='1216'> +2.7927961e+11 </wgt>
<wgt id='1217'> +2.7908083e+11 </wgt>
<wgt id='1218'> +2.8502167e+11 </wgt>
<wgt id='1219'> +2.9354585e+11 </wgt>
<wgt id='1220'> +2.8022013e+11 </wgt>
<wgt id='1221'> +2.7692936e+11 </wgt>
<wgt id='1222'> +2.7863602e+11 </wgt>
<wgt id='1223'> +2.7355497e+11 </wgt>
<wgt id='1224'> +2.8251127e+11 </wgt>
<wgt id='1225'> +2.8594467e+11 </wgt>
<wgt id='1226'> +2.8595940e+11 </wgt>
<wgt id='1227'> +2.8065794e+11 </wgt>
<wgt id='1228'> +2.8240805e+11 </wgt>
<wgt id='1229'> +3.0048163e+11 </wgt>
<wgt id='1230'> +2.8893086e+11 </wgt>
<wgt id='1231'> +2.7811631e+11 </wgt>
<wgt id='1232'> +2.8742288e+11 </wgt>
<wgt id='1233'> +2.7639039e+11 </wgt>
<wgt id='1234'> +2.7808988e+11 </wgt>
<wgt id='1235'> +2.9976083e+11 </wgt>
<wgt id='1236'> +2.7828086e+11 </wgt>
<wgt id='1237'> +2.8965741e+11 </wgt>
<wgt id='1238'> +2.8093503e+11 </wgt>
<wgt id='1239'> +2.8612931e+11 </wgt>
<wgt id='1240'> +2.7694840e+11 </wgt>
<wgt id='1241'> +2.8707610e+11 </wgt>
<wgt id='1242'> +2.8024629e+11 </wgt>
<wgt id='1243'> +2.8489399e+11 </wgt>
<wgt id='1244'> +2.8887226e+11 </wgt>
<wgt id='1245'> +2.7737524e+11 </wgt>
<wgt id='1246'> +3.0418321e+11 </wgt>
<wgt id='1247'> +2.8137075e+11 </wgt>
<wgt id='1248'> +2.7320191e+11 </wgt>
<wgt id='1249'> +2.7556201e+11 </wgt>
<wgt id='1250'> +2.9353277e+11 </wgt>
<wgt id='1251'> +3.0140119e+11 </wgt>
<wgt id='1252'> +2.8802363e+11 </wgt>
<wgt id='1253'> +2.9127834e+11 </wgt>
<wgt id='1254'> +2.8923743e+11 </wgt>
<wgt id='1255'> +3.0296316e+11 </wgt>
<wgt id='1256'> +3.0309999e+11 </wgt>
<wgt id='1257'> +2.9970408e+11 </wgt>
<wgt id='1258'> +2.9303212e+11 </wgt>
<wgt id='1259'> +3.0331147e+11 </wgt>
<wgt id='1260'> +3.2761533e+11 </wgt>
<wgt id='1261'> +3.1470702e+11 </wgt>
<wgt id='1262'> +2.9373665e+11 </wgt>
<wgt id='1263'> +2.9912562e+11 </wgt>
<wgt id='1264'> +3.0209598e+11 </wgt>
<wgt id='1265'> +2.9391350e+11 </wgt>
<wgt id='1266'> +3.0343095e+11 </wgt>
<wgt id='1267'> +3.4379282e+11 </wgt>
<wgt id='1268'> +2.8940376e+11 </wgt>
<wgt id='1269'> +2.8662895e+11 </wgt>
<wgt id='1270'> +3.0360157e+11 </wgt>
<wgt id='1271'> +2.6775503e+11 </wgt>
<wgt id='1272'> +2.9322375e+11 </wgt>
<wgt id='1273'> +2.9063887e+11 </wgt>
<wgt id='1274'> +2.8653154e+11 </wgt>
<wgt id='1275'> +2.9407569e+11 </wgt>
<wgt id='1276'> +3.0239027e+11 </wgt>
<wgt id='1277'> +2.9748874e+11 </wgt>
<wgt id='1278'> +2.9824099e+11 </wgt>
<wgt id='1279'> +2.7942109e+11 </wgt>
<wgt id='1280'> +2.8604812e+11 </wgt>
<wgt id='1281'> +2.8495418e+11 </wgt>
<wgt id='1282'> +2.9503118e+11 </wgt>
<wgt id='1283'> +3.0879129e+11 </wgt>
<wgt id='1284'> +3.0885238e+11 </wgt>
<wgt id='1285'> +3.0797942e+11 </wgt>
<wgt id='1286'> +3.3023843e+11 </wgt>
<wgt id='1287'> +3.0885229e+11 </wgt>
<wgt id='1288'> +3.3392182e+11 </wgt>
<wgt id='1289'> +3.1461567e+11 </wgt>
<wgt id='1290'> +3.1247119e+11 </wgt>
<wgt id='1291'> +2.7831079e+11 </wgt>
<wgt id='1292'> +3.0257853e+11 </wgt>
<wgt id='1293'> +3.0299378e+11 </wgt>
<wgt id='1294'> +3.2289986e+11 </wgt>
<wgt id='1295'> +3.0930360e+11 </wgt>
<wgt id='1296'> +3.2813667e+11 </wgt>
<wgt id='1297'> +2.9090748e+11 </wgt>
<wgt id='1298'> +2.8864226e+11 </wgt>
<wgt id='1299'> +3.0363516e+11 </wgt>
<wgt id='1300'> +2.8372501e+11 </wgt>
<wgt id='1301'> +2.7936526e+11 </wgt>
<wgt id='1302'> +2.8201811e+11 </wgt>
<wgt id='1303'> +3.0304022e+11 </wgt>
<wgt id='1304'> +3.2413586e+11 </wgt>
<wgt id='1305'> +2.9827358e+11 </wgt>
<wgt id='1306'> +3.0592705e+11 </wgt>
<wgt id='1307'> +2.8934889e+11 </wgt>
<wgt id='1308'> +3.3030059e+11 </wgt>
<wgt id='1309'> +3.0028830e+11 </wgt>
<wgt id='1310'> +3.0327215e+11 </wgt>
<wgt id='1311'> +2.9910209e+11 </wgt>
<wgt id='1312'> +3.1227881e+11 </wgt>
<wgt id='1313'> +3.0312241e+11 </wgt>
<wgt id='1314'> +2.9482196e+11 </wgt>
<wgt id='1315'> +2.8741566e+11 </wgt>
<wgt id='1316'> +2.9969295e+11 </wgt>
<wgt id='1317'> +3.1092834e+11 </wgt>
<wgt id='1318'> +2.9112966e+11 </wgt>
<wgt id='1319'> +2.9723810e+11 </wgt>
<wgt id='1320'> +3.1665004e+11 </wgt>
<wgt id='1321'> +3.0123462e+11 </wgt>
<wgt id='1322'> +3.0908588e+11 </wgt>
<wgt id='1323'> +2.9000647e+11 </wgt>
<wgt id='1324'> +3.0750890e+11 </wgt>
<wgt id='1325'> +3.1254573e+11 </wgt>
<wgt id='1326'> +3.0876469e+11 </wgt>
<wgt id='1327'> +3.1140717e+11 </wgt>
<wgt id='1328'> +2.9788986e+11 </wgt>
<wgt id='1329'> +2.9776287e+11 </wgt>
<wgt id='1330'> +2.8544875e+11 </wgt>
<wgt id='1331'> +3.2267005e+11 </wgt>
<wgt id='1332'> +2.9629887e+11 </wgt>
<wgt id='1333'> +3.0200093e+11 </wgt>
<wgt id='1334'> +3.1742126e+11 </wgt>
<wgt id='1335'> +2.9236157e+11 </wgt>
<wgt id='1336'> +3.1494860e+11 </wgt>
<wgt id='1337'> +3.0906718e+11 </wgt>
<wgt id='1338'> +2.8740674e+11 </wgt>
<wgt id='1339'> +3.1513354e+11 </wgt>
<wgt id='1340'> +3.0815671e+11 </wgt>
<wgt id='1341'> +3.2179984e+11 </wgt>
<wgt id='1342'> +3.0367337e+11 </wgt>
<wgt id='1343'> +3.0889905e+11 </wgt>
<wgt id='1344'> +3.1590145e+11 </wgt>
<wgt id='1345'> +2.6480528e+11 </wgt>
<wgt id='1346'> +3.0404286e+11 </wgt>
<wgt id='1347'> +2.9220440e+11 </wgt>
<wgt id='1348'> +2.9019221e+11 </wgt>
<wgt id='1349'> +2.8760397e+11 </wgt>
<wgt id='1350'> +3.0849620e+11 </wgt>
<wgt id='1351'> +2.9158853e+11 </wgt>
<wgt id='1352'> +3.0357303e+11 </wgt>
<wgt id='1353'> +3.0055924e+11 </wgt>
<wgt id='1354'> +3.0969696e+11 </wgt>
<wgt id='1355'> +2.7812554e+11 </wgt>
<wgt id='1356'> +2.8074548e+11 </wgt>
<wgt id='1357'> +2.7854858e+11 </wgt>
<wgt id='1358'> +2.7647533e+11 </wgt>
<wgt id='1359'> +2.7751577e+11 </wgt>
<wgt id='1360'> +2.7318161e+11 </wgt>
<wgt id='1361'> +2.7695154e+11 </wgt>
<wgt id='1362'> +2.8514112e+11 </wgt>
<wgt id='1363'> +2.7574266e+11 </wgt>
<wgt id='1364'> +2.8323945e+11 </wgt>
<wgt id='1365'> +2.7600632e+11 </wgt>
<wgt id='1366'> +2.7475156e+11 </wgt>
<wgt id='1367'> +2.7794855e+11 </wgt>
<wgt id='1368'> +2.7866473e+11 </wgt>
<wgt id='1369'> +2.8131622e+11 </wgt>
<wgt id='1370'> +2.7512137e+11 </wgt>
<wgt id='1371'> +2.7835491e+11 </wgt>
<wgt id='1372'> +2.7971354e+11 </wgt>
<wgt id='1373'> +2.8137456e+11 </wgt>
<wgt id='1374'> +2.7100609e+11 </wgt>
<wgt id='1375'> +2.7918464e+11 </wgt>
<wgt id='1376'> +2.7736228e+11 </wgt>
<wgt id='1377'> +2.7866282e+11 </wgt>
<wgt id='1378'> +2.7777536e+11 </wgt>
<wgt id='1379'> +2.7657342e+11 </wgt>
<wgt id='1380'> +2.7563804e+11 </wgt>
<wgt id='1381'> +2.8268322e+11 </wgt>
<wgt id='1382'> +2.7697912e+11 </wgt>
<wgt id='1383'> +2.7574471e+11 </wgt>
<wgt id='1384'> +2.7426132e+11 </wgt>
<wgt id='1385'> +2.7372560e+11 </wgt>
<wgt id='1386'> +2.7661247e+11 </wgt>
<wgt id='1387'> +2.7633312e+11 </wgt>
<wgt id='1388'> +2.7349264e+11 </wgt>
<wgt id='1389'> +2.7693371e+11 </wgt>
<wgt id='1390'> +2.8016471e+11 </wgt>
<wgt id='1391'> +2.7674350e+11 </wgt>
<wgt id='1392'> +2.7472561e+11 </wgt>
<wgt id='1393'> +2.7883103e+11 </wgt>
<wgt id='1394'> +2.7693642e+11 </wgt>
<wgt id='1395'> +2.7318727e+11 </wgt>
<wgt id='1396'> +2.7855271e+11 </wgt>
<wgt id='1397'> +2.7882581e+11 </wgt>
<wgt id='1398'> +2.8100705e+11 </wgt>
<wgt id='1399'> +2.7582055e+11 </wgt>
<wgt id='1400'> +2.7332164e+11 </wgt>
<wgt id='1401'> +2.7876330e+11 </wgt>
<wgt id='1402'> +2.8070640e+11 </wgt>
<wgt id='1403'> +2.8565815e+11 </wgt>
<wgt id='1404'> +2.8060937e+11 </wgt>
<wgt id='1405'> +2.8493360e+11 </wgt>
<wgt id='1406'> +2.8057857e+11 </wgt>
<wgt id='1407'> +2.7860790e+11 </wgt>
<wgt id='1408'> +2.8416229e+11 </wgt>
<wgt id='1409'> +2.7380912e+11 </wgt>
<wgt id='1410'> +2.7111563e+11 </wgt>
<wgt id='1411'> +2.7785603e+11 </wgt>
<wgt id='1412'> +2.7664247e+11 </wgt>
<wgt id='1413'> +2.7868832e+11 </wgt>
<wgt id='1414'> +2.8063404e+11 </wgt>
<wgt id='1415'> +2.7956682e+11 </wgt>
<wgt id='1416'> +2.7983196e+11 </wgt>
<wgt id='1417'> +2.7506395e+11 </wgt>
<wgt id='1418'> +2.7771727e+11 </wgt>
<wgt id='1419'> +2.8175270e+11 </wgt>
<wgt id='1420'> +2.7478413e+11 </wgt>
<wgt id='1421'> +2.8453519e+11 </wgt>
<wgt id='1422'> +2.7125488e+11 </wgt>
<wgt id='1423'> +2.8251960e+11 </wgt>
<wgt id='1424'> +2.7899235e+11 </wgt>
<wgt id='1425'> +2.7868244e+11 </wgt>
<wgt id='1426'> +2.8029472e+11 </wgt>
<wgt id='1427'> +2.7714078e+11 </wgt>
<wgt id='1428'> +2.7697906e+11 </wgt>
<wgt id='1429'> +2.7820018e+11 </wgt>
<wgt id='1430'> +2.7448401e+11 </wgt>
<wgt id='1431'> +2.7361448e+11 </wgt>
<wgt id='1432'> +2.7622310e+11 </wgt>
<wgt id='1433'> +2.7501040e+11 </wgt>
<wgt id='1434'> +2.8552378e+11 </wgt>
<wgt id='1435'> +2.7717993e+11 </wgt>
<wgt id='1436'> +2.8194577e+11 </wgt>
<wgt id='1437'> +2.7759391e+11 </wgt>
<wgt id='1438'> +2.7759401e+11 </wgt>
<wgt id='1439'> +2.8312238e+11 </wgt>
<wgt id='1440'> +2.7996810e+11 </wgt>
<wgt id='1441'> +2.7497501e+11 </wgt>
<wgt id='1442'> +2.8213276e+11 </wgt>
<wgt id='1443'> +2.7519720e+11 </wgt>
<wgt id='1444'> +2.8178431e+11 </wgt>
<wgt id='1445'> +2.7840955e+11 </wgt>
<wgt id='1446'> +2.8468276e+11 </wgt>
<wgt id='1447'> +2.7655984e+11 </wgt>
<wgt id='1448'> +2.8064275e+11 </wgt>
<wgt id='1449'> +2.8109728e+11 </wgt>
<wgt id='1450'> +2.7748109e+11 </wgt>
<wgt id='1451'> +2.7908251e+11 </wgt>
<wgt id='1452'> +2.8024875e+11 </wgt>
<wgt id='1453'> +2.7950145e+11 </wgt>
<wgt id='1454'> +2.6991399e+11 </wgt>
<wgt id='1455'> +2.7676942e+11 </wgt>
<wgt id='1456'> +2.7689495e+11 </wgt>
<wgt id='1457'> +2.7738933e+11 </wgt>
<wgt id='1458'> +2.8328967e+11 </wgt>
<wgt id='1459'> +3.1065363e+11 </wgt>
<wgt id='1460'> +3.0562062e+11 </wgt>
<wgt id='1461'> +3.6194577e+11 </wgt>
<wgt id='1462'> +2.9980530e+11 </wgt>
<wgt id='1463'> +3.0003238e+11 </wgt>
<wgt id='1464'> +2.9951406e+11 </wgt>
<wgt id='1465'> +2.9987110e+11 </wgt>
<wgt id='1466'> +2.9974521e+11 </wgt>
<wgt id='1467'> +2.9993100e+11 </wgt>
<wgt id='1468'> +2.9959905e+11 </wgt>
<wgt id='1469'> +2.9937074e+11 </wgt>
<wgt id='1470'> +3.0015823e+11 </wgt>
<wgt id='1471'> +3.0025961e+11 </wgt>
<wgt id='1472'> +2.9933736e+11 </wgt>
<wgt id='1473'> +3.0098806e+11 </wgt>
<wgt id='1474'> +2.9866927e+11 </wgt>
<wgt id='1475'> +3.0092751e+11 </wgt>
<wgt id='1476'> +2.9900977e+11 </wgt>
<wgt id='1477'> +2.9925393e+11 </wgt>
<wgt id='1478'> +3.0109346e+11 </wgt>
<wgt id='1479'> +2.9941385e+11 </wgt>
<wgt id='1480'> +3.0008209e+11 </wgt>
<wgt id='1481'> +2.9929660e+11 </wgt>
<wgt id='1482'> +3.0049283e+11 </wgt>
<wgt id='1483'> +2.9987726e+11 </wgt>
<wgt id='1484'> +2.9970544e+11 </wgt>
<wgt id='1485'> +3.0001508e+11 </wgt>
<wgt id='1486'> +2.9930009e+11 </wgt>
<wgt id='1487'> +3.0008352e+11 </wgt>
<wgt id='1488'> +2.9945783e+11 </wgt>
<wgt id='1489'> +2.9943754e+11 </wgt>
<wgt id='1490'> +3.0080260e+11 </wgt>
<wgt id='1491'> +3.0478335e+11 </wgt>
<wgt id='1492'> +2.9703062e+11 </wgt>
<wgt id='1493'> +2.9619473e+11 </wgt>
<wgt id='1494'> +3.1112856e+11 </wgt>
<wgt id='1495'> +2.9903972e+11 </wgt>
<wgt id='1496'> +3.0062720e+11 </wgt>
<wgt id='1497'> +3.0000870e+11 </wgt>
<wgt id='1498'> +2.9952742e+11 </wgt>
<wgt id='1499'> +3.0181501e+11 </wgt>
<wgt id='1500'> +2.9870733e+11 </wgt>
<wgt id='1501'> +3.0019931e+11 </wgt>
<wgt id='1502'> +2.9876460e+11 </wgt>
<wgt id='1503'> +2.9599013e+11 </wgt>
<wgt id='1504'> +3.0400094e+11 </wgt>
<wgt id='1505'> +3.0060648e+11 </wgt>
<wgt id='1506'> +2.9902051e+11 </wgt>
<wgt id='1507'> +3.0239327e+11 </wgt>
<wgt id='1508'> +2.9618631e+11 </wgt>
<wgt id='1509'> +3.0051326e+11 </wgt>
<wgt id='1510'> +2.9675750e+11 </wgt>
<wgt id='1511'> +3.0100490e+11 </wgt>
<wgt id='1512'> +2.9943834e+11 </wgt>
<wgt id='1513'> +2.9967454e+11 </wgt>
<wgt id='1514'> +2.9995774e+11 </wgt>
<wgt id='1515'> +3.0304481e+11 </wgt>
<wgt id='1516'> +2.9971624e+11 </wgt>
<wgt id='1517'> +2.9933929e+11 </wgt>
<wgt id='1518'> +3.0036257e+11 </wgt>
<wgt id='1519'> +2.9794318e+11 </wgt>
<wgt id='1520'> +3.0112628e+11 </wgt>
<wgt id='1521'> +2.9874361e+11 </wgt>
<wgt id='1522'> +3.0041393e+11 </wgt>
<wgt id='1523'> +3.0102819e+11 </wgt>
<wgt id='1524'> +3.0137086e+11 </wgt>
<wgt id='1525'> +3.0070356e+11 </wgt>
<wgt id='1526'> +3.0103796e+11 </wgt>
<wgt id='1527'> +2.9980530e+11 </wgt>
<wgt id='1528'> +2.9904649e+11 </wgt>
<wgt id='1529'> +3.0018832e+11 </wgt>
<wgt id='1530'> +2.9597984e+11 </wgt>
<wgt id='1531'> +3.0082974e+11 </wgt>
<wgt id='1532'> +2.9952206e+11 </wgt>
<wgt id='1533'> +2.9567255e+11 </wgt>
<wgt id='1534'> +2.9927522e+11 </wgt>
<wgt id='1535'> +3.0378644e+11 </wgt>
<wgt id='1536'> +2.9780650e+11 </wgt>
<wgt id='1537'> +3.0175720e+11 </wgt>
<wgt id='1538'> +2.9720679e+11 </wgt>
<wgt id='1539'> +3.0620226e+11 </wgt>
<wgt id='1540'> +3.0130754e+11 </wgt>
<wgt id='1541'> +3.0207632e+11 </wgt>
<wgt id='1542'> +3.0089326e+11 </wgt>
<wgt id='1543'> +3.0237716e+11 </wgt>
<wgt id='1544'> +2.9909894e+11 </wgt>
<wgt id='1545'> +2.9880562e+11 </wgt>
<wgt id='1546'> +2.9697083e+11 </wgt>
<wgt id='1547'> +3.0314178e+11 </wgt>
<wgt id='1548'> +2.9936412e+11 </wgt>
<wgt id='1549'> +2.9734538e+11 </wgt>
<wgt id='1550'> +3.0244593e+11 </wgt>
<wgt id='1551'> +3.0143908e+11 </wgt>
<wgt id='1552'> +3.0070951e+11 </wgt>
<wgt id='1553'> +3.0439065e+11 </wgt>
<wgt id='1554'> +3.0089902e+11 </wgt>
<wgt id='1555'> +3.0169573e+11 </wgt>
<wgt id='1556'> +3.0299308e+11 </wgt>
<wgt id='1557'> +3.0031354e+11 </wgt>
<wgt id='1558'> +3.0111498e+11 </wgt>
<wgt id='1559'> +2.9832524e+11 </wgt>
<wgt id='1560'> +2.9960697e+11 </wgt>
<wgt id='1561'> +2.9825969e+11 </wgt>
<wgt id='1562'> +2.9927014e+11 </wgt>
<wgt id='1563'> +3.0102490e+11 </wgt>
<wgt id='1564'> +3.0048276e+11 </wgt>
<wgt id='1565'> +3.0335401e+11 </wgt>
<wgt id='1566'> +3.0086967e+11 </wgt>
<wgt id='1567'> +3.0313359e+11 </wgt>
<wgt id='1568'> +3.0070814e+11 </wgt>
<wgt id='1569'> +3.0031636e+11 </wgt>
<wgt id='1570'> +3.0669502e+11 </wgt>
<wgt id='1571'> +3.0083091e+11 </wgt>
<wgt id='1572'> +3.0277136e+11 </wgt>
<wgt id='1573'> +3.0457220e+11 </wgt>
<wgt id='1574'> +2.5787898e+11 </wgt>
<wgt id='1575'> +2.5794749e+11 </wgt>
<wgt id='1576'> +2.5781069e+11 </wgt>
<wgt id='1577'> +2.5789704e+11 </wgt>
<wgt id='1578'> +2.5847355e+11 </wgt>
<wgt id='1579'> +2.5869722e+11 </wgt>
<wgt id='1580'> +2.5846470e+11 </wgt>
<wgt id='1581'> +2.5735530e+11 </wgt>
<wgt id='1582'> +2.5707550e+11 </wgt>
<wgt id='1583'> +2.5742403e+11 </wgt>
<wgt id='1584'> +2.5844795e+11 </wgt>
<wgt id='1585'> +2.5810779e+11 </wgt>
<wgt id='1586'> +2.5700764e+11 </wgt>
<wgt id='1587'> +2.5718967e+11 </wgt>
<wgt id='1588'> +2.5672881e+11 </wgt>
<wgt id='1589'> +2.5757981e+11 </wgt>
<wgt id='1590'> +2.5771857e+11 </wgt>
<wgt id='1591'> +2.5795593e+11 </wgt>
<wgt id='1592'> +2.5688323e+11 </wgt>
<wgt id='1593'> +2.5685476e+11 </wgt>
<wgt id='1594'> +2.5886450e+11 </wgt>
<wgt id='1595'> +2.5543133e+11 </wgt>
<wgt id='1596'> +2.6193443e+11 </wgt>
<wgt id='1597'> +2.5967731e+11 </wgt>
<wgt id='1598'> +2.5983238e+11 </wgt>
<wgt id='1599'> +2.5494030e+11 </wgt>
<wgt id='1600'> +2.6265279e+11 </wgt>
<wgt id='1601'> +2.6003501e+11 </wgt>
<wgt id='1602'> +2.5792621e+11 </wgt>
<wgt id='1603'> +2.7079856e+11 </wgt>
<wgt id='1604'> +2.5801421e+11 </wgt>
</rwgt>
</event>
<event>
 9      1 +2.8343000e+11 1.40000200e+03 7.81738600e-03 7.88881000e-02
       21 -1    0    0  504  503 +0.0000000000e+00 +0.0000000000e+00 +3.7690256318e+02 3.7690256318e+02 0.0000000000e+00 0.0000e+00 1.0000e+00
       21 -1    0    0  503  504 -0.0000000000e+00 -0.0000000000e+00 -1.3000748279e+03 1.3000748279e+03 0.0000000000e+00 0.0000e+00 1.0000e+00
       45  2    1    2    0    0 -5.6843418861e-14 +0.0000000000e+00 -9.2317226476e+02 1.6769773911e+03 1.4000021928e+03 0.0000e+00 0.0000e+00
       25  2    3    3    0    0 -3.8977198043e+02 +2.8813107829e+02 +1.2736392340e+02 5.1651715420e+02 1.2500674616e+02 0.0000e+00 0.0000e+00
       35  2    3    3    0    0 +3.8977198043e+02 -2.8813107829e+02 -1.0505361882e+03 1.1604602369e+03 8.9999799140e+01 0.0000e+00 0.0000e+00
        5  1    5    5  501    0 +8.9510030348e+01 -9.0650781447e+01 -3.6163609891e+02 3.8344234970e+02 4.2140000000e+00 0.0000e+00 1.0000e+00
       -5  1    5    5    0  501 +3.0026195009e+02 -1.9748029684e+02 -6.8890008926e+02 7.7701788724e+02 4.2140000000e+00 0.0000e+00 1.0000e+00
        5  1    4    4  502    0 -2.0187571096e+02 +2.1985105998e+02 +9.9331881861e+01 3.1459954196e+02 4.2140000000e+00 0.0000e+00 -1.0000e+00
       -5  1    4    4    0  502 -1.8789626947e+02 +6.8280018306e+01 +2.8032041543e+01 2.0191761224e+02 4.2140000000e+00 0.0000e+00 -1.0000e+00
<mgrwt>
<rscale>  0 0.14000022E+04</rscale>
<asrwt>0</asrwt>
<pdfrwt beam="1">  1       21 0.57985010E-01 0.14000022E+04</pdfrwt>
<pdfrwt beam="2">  1       21 0.20001151E+00 0.14000022E+04</pdfrwt>
<totfact> 0.25434211E+02</totfact>
</mgrwt>
<rwgt>
<wgt id='1001'> +2.8343000e+11 </wgt>
<wgt id='1002'> +3.0061916e+11 </wgt>
<wgt id='1003'> +3.0061471e+11 </wgt>
<wgt id='1004'> +3.3972217e+11 </wgt>
<wgt id='1005'> +2.8343000e+11 </wgt>
<wgt id='1006'> +2.8343000e+11 </wgt>
<wgt id='1007'> +3.0061916e+11 </wgt>
<wgt id='1008'> +3.0061471e+11 </wgt>
<wgt id='1009'> +3.3972217e+11 </wgt>
<wgt id='1010'> +2.8343000e+11 </wgt>
<wgt id='1011'> +2.8343000e+11 </wgt>
<wgt id='1012'> +3.0061916e+11 </wgt>
<wgt id='1013'> +3.0061471e+11 </wgt>
<wgt id='1014'> +3.3972217e+11 </wgt>
<wgt id='1015'> +2.8343000e+11 </wgt>
<wgt id='1016'> +2.5369881e+11 </wgt>
<wgt id='1017'> +2.6812577e+11 </wgt>
<wgt id='1018'> +2.6812206e+11 </wgt>
<wgt id='1019'> +3.0061471e+11 </wgt>
<wgt id='1020'> +2.5369881e+11 </wgt>
<wgt id='1021'> +2.5369881e+11 </wgt>
<wgt id='1022'> +2.6812577e+11 </wgt>
<wgt id='1023'> +2.6812206e+11 </wgt>
<wgt id='1024'> +3.0061471e+11 </wgt>
<wgt id='1025'> +2.5369881e+11 </wgt>
<wgt id='1026'> +2.5369881e+11 </wgt>
<wgt id='1027'> +2.6812577e+11 </wgt>
<wgt id='1028'> +2.6812206e+11 </wgt>
<wgt id='1029'> +3.0061471e+11 </wgt>
<wgt id='1030'> +2.5369881e+11 </wgt>
<wgt id='1031'> +3.1900389e+11 </wgt>
<wgt id='1032'> +3.3972753e+11 </wgt>
<wgt id='1033'> +3.3972217e+11 </wgt>
<wgt id='1034'> +3.8727942e+11 </wgt>
<wgt id='1035'> +3.1900389e+11 </wgt>
<wgt id='1036'> +3.1900389e+11 </wgt>
<wgt id='1037'> +3.3972753e+11 </wgt>
<wgt id='1038'> +3.3972217e+11 </wgt>
<wgt id='1039'> +3.8727942e+11 </wgt>
<wgt id='1040'> +3.1900389e+11 </wgt>
<wgt id='1041'> +3.1900389e+11 </wgt>
<wgt id='1042'> +3.3972753e+11 </wgt>
<wgt id='1043'> +3.3972217e+11 </wgt>
<wgt id='1044'> +3.8727942e+11 </wgt>
<wgt id='1045'> +3.1900389e+11 </wgt>
<wgt id='1046'> +2.8343000e+11 </wgt>
<wgt id='1047'> +2.8343000e+11 </wgt>
<wgt id='1048'> +2.8343000e+11 </wgt>
<wgt id='1049'> +2.8296798e+11 </wgt>
<wgt id='1050'> +2.8320593e+11 </wgt>
<wgt id='1051'> +2.8333682e+11 </wgt>
<wgt id='1052'> +2.8422501e+11 </wgt>
<wgt id='1053'> +2.8160459e+11 </wgt>
<wgt id='1054'> +2.8377059e+11 </wgt>
<wgt id='1055'> +2.8214564e+11 </wgt>
<wgt id='1056'> +2.8213125e+11 </wgt>
<wgt id='1057'> +2.8295243e+11 </wgt>
<wgt id='1058'> +2.8265902e+11 </wgt>
<wgt id='1059'> +2.8542771e+11 </wgt>
<wgt id='1060'> +2.8376112e+11 </wgt>
<wgt id='1061'> +2.8396707e+11 </wgt>
<wgt id='1062'> +2.8429858e+11 </wgt>
<wgt id='1063'> +2.8467540e+11 </wgt>
<wgt id='1064'> +2.8406104e+11 </wgt>
<wgt id='1065'> +2.8475786e+11 </wgt>
<wgt id='1066'> +2.8141416e+11 </wgt>
<wgt id='1067'> +2.8226272e+11 </wgt>
<wgt id='1068'> +2.8371557e+11 </wgt>
<wgt id='1069'> +2.8255169e+11 </wgt>
<wgt id='1070'> +2.8406443e+11 </wgt>
<wgt id='1071'> +2.8270089e+11 </wgt>
<wgt id='1072'> +2.8328791e+11 </wgt>
<wgt id='1073'> +2.8260320e+11 </wgt>
<wgt id='1074'> +2.8267812e+11 </wgt>
<wgt id='1075'> +2.8407389e+11 </wgt>
<wgt id='1076'> +2.8156899e+11 </wgt>
<wgt id='1077'> +2.8202304e+11 </wgt>
<wgt id='1078'> +2.8412271e+11 </wgt>
<wgt id='1079'> +2.8221656e+11 </wgt>
<wgt id='1080'> +2.8308720e+11 </wgt>
<wgt id='1081'> +2.8299385e+11 </wgt>
<wgt id='1082'> +2.8226505e+11 </wgt>
<wgt id='1083'> +2.8436519e+11 </wgt>
<wgt id='1084'> +2.8399880e+11 </wgt>
<wgt id='1085'> +2.8270644e+11 </wgt>
<wgt id='1086'> +2.8334349e+11 </wgt>
<wgt id='1087'> +2.8339135e+11 </wgt>
<wgt id='1088'> +2.8295730e+11 </wgt>
<wgt id='1089'> +2.8250039e+11 </wgt>
<wgt id='1090'> +2.8402941e+11 </wgt>
<wgt id='1091'> +2.8359055e+11 </wgt>
<wgt id='1092'> +2.8363973e+11 </wgt>
<wgt id='1093'> +2.8349566e+11 </wgt>
<wgt id='1094'> +2.8233269e+11 </wgt>
<wgt id='1095'> +2.8365888e+11 </wgt>
<wgt id='1096'> +2.8341512e+11 </wgt>
<wgt id='1097'> +2.8285772e+11 </wgt>
<wgt id='1098'> +2.8319222e+11 </wgt>
<wgt id='1099'> +2.8322925e+11 </wgt>
<wgt id='1100'> +2.8404086e+11 </wgt>
<wgt id='1101'> +2.8350278e+11 </wgt>
<wgt id='1102'> +2.8334233e+11 </wgt>
<wgt id='1103'> +2.8275751e+11 </wgt>
<wgt id='1104'> +2.8326797e+11 </wgt>
<wgt id='1105'> +2.8351230e+11 </wgt>
<wgt id='1106'> +2.8377861e+11 </wgt>
<wgt id='1107'> +2.8363247e+11 </wgt>
<wgt id='1108'> +2.8322168e+11 </wgt>
<wgt id='1109'> +2.8327795e+11 </wgt>
<wgt id='1110'> +2.8365607e+11 </wgt>
<wgt id='1111'> +2.8367387e+11 </wgt>
<wgt id='1112'> +2.8334500e+11 </wgt>
<wgt id='1113'> +2.8377212e+11 </wgt>
<wgt id='1114'> +2.8314110e+11 </wgt>
<wgt id='1115'> +2.8300550e+11 </wgt>
<wgt id='1116'> +2.8407084e+11 </wgt>
<wgt id='1117'> +2.8335867e+11 </wgt>
<wgt id='1118'> +2.8372837e+11 </wgt>
<wgt id='1119'> +2.8305030e+11 </wgt>
<wgt id='1120'> +2.8309032e+11 </wgt>
<wgt id='1121'> +2.8350446e+11 </wgt>
<wgt id='1122'> +2.8308813e+11 </wgt>
<wgt id='1123'> +2.8337599e+11 </wgt>
<wgt id='1124'> +2.8346612e+11 </wgt>
<wgt id='1125'> +2.8362939e+11 </wgt>
<wgt id='1126'> +2.8355440e+11 </wgt>
<wgt id='1127'> +2.8328240e+11 </wgt>
<wgt id='1128'> +2.8338464e+11 </wgt>
<wgt id='1129'> +2.8327142e+11 </wgt>
<wgt id='1130'> +2.8346056e+11 </wgt>
<wgt id='1131'> +2.8393426e+11 </wgt>
<wgt id='1132'> +2.8332514e+11 </wgt>
<wgt id='1133'> +2.8356681e+11 </wgt>
<wgt id='1134'> +2.8340936e+11 </wgt>
<wgt id='1135'> +2.8346228e+11 </wgt>
<wgt id='1136'> +2.8332153e+11 </wgt>
<wgt id='1137'> +2.8321494e+11 </wgt>
<wgt id='1138'> +2.8357783e+11 </wgt>
<wgt id='1139'> +2.8352569e+11 </wgt>
<wgt id='1140'> +2.8369918e+11 </wgt>
<wgt id='1141'> +2.8318645e+11 </wgt>
<wgt id='1142'> +2.8348409e+11 </wgt>
<wgt id='1143'> +2.8362418e+11 </wgt>
<wgt id='1144'> +2.8332680e+11 </wgt>
<wgt id='1145'> +2.8358750e+11 </wgt>
<wgt id='1146'> +2.8349392e+11 </wgt>
<wgt id='1147'> +2.8348887e+11 </wgt>
<wgt id='1148'> +2.8343000e+11 </wgt>
<wgt id='1149'> +2.8343000e+11 </wgt>
<wgt id='1150'> +2.9699033e+11 </wgt>
<wgt id='1151'> +2.7654182e+11 </wgt>
<wgt id='1152'> +2.7373624e+11 </wgt>
<wgt id='1153'> +2.8564496e+11 </wgt>
<wgt id='1154'> +2.8024468e+11 </wgt>
<wgt id='1155'> +2.9533159e+11 </wgt>
<wgt id='1156'> +2.7911758e+11 </wgt>
<wgt id='1157'> +2.7522019e+11 </wgt>
<wgt id='1158'> +2.7702708e+11 </wgt>
<wgt id='1159'> +2.9837712e+11 </wgt>
<wgt id='1160'> +2.8568181e+11 </wgt>
<wgt id='1161'> +2.9073229e+11 </wgt>
<wgt id='1162'> +2.8634920e+11 </wgt>
<wgt id='1163'> +2.8688247e+11 </wgt>
<wgt id='1164'> +2.7418577e+11 </wgt>
<wgt id='1165'> +2.7781304e+11 </wgt>
<wgt id='1166'> +2.8321341e+11 </wgt>
<wgt id='1167'> +2.7815306e+11 </wgt>
<wgt id='1168'> +2.7368055e+11 </wgt>
<wgt id='1169'> +2.7619331e+11 </wgt>
<wgt id='1170'> +2.8465543e+11 </wgt>
<wgt id='1171'> +2.7335552e+11 </wgt>
<wgt id='1172'> +2.7373632e+11 </wgt>
<wgt id='1173'> +2.8571869e+11 </wgt>
<wgt id='1174'> +2.7671234e+11 </wgt>
<wgt id='1175'> +2.7889143e+11 </wgt>
<wgt id='1176'> +2.8732347e+11 </wgt>
<wgt id='1177'> +2.7879518e+11 </wgt>
<wgt id='1178'> +2.8505949e+11 </wgt>
<wgt id='1179'> +2.8583122e+11 </wgt>
<wgt id='1180'> +2.8040084e+11 </wgt>
<wgt id='1181'> +2.9363319e+11 </wgt>
<wgt id='1182'> +2.8057418e+11 </wgt>
<wgt id='1183'> +2.8879275e+11 </wgt>
<wgt id='1184'> +2.7859332e+11 </wgt>
<wgt id='1185'> +2.8931466e+11 </wgt>
<wgt id='1186'> +2.7848926e+11 </wgt>
<wgt id='1187'> +2.8488351e+11 </wgt>
<wgt id='1188'> +2.9027133e+11 </wgt>
<wgt id='1189'> +2.8174710e+11 </wgt>
<wgt id='1190'> +2.8027085e+11 </wgt>
<wgt id='1191'> +2.9028732e+11 </wgt>
<wgt id='1192'> +2.8784289e+11 </wgt>
<wgt id='1193'> +2.8938625e+11 </wgt>
<wgt id='1194'> +2.7878236e+11 </wgt>
<wgt id='1195'> +2.8638741e+11 </wgt>
<wgt id='1196'> +2.9112326e+11 </wgt>
<wgt id='1197'> +2.9056219e+11 </wgt>
<wgt id='1198'> +2.8679698e+11 </wgt>
<wgt id='1199'> +2.8752394e+11 </wgt>
<wgt id='1200'> +2.9019846e+11 </wgt>
<wgt id='1201'> +2.8187761e+11 </wgt>
<wgt id='1202'> +2.8529930e+11 </wgt>
<wgt id='1203'> +2.8400569e+11 </wgt>
<wgt id='1204'> +2.8067438e+11 </wgt>
<wgt id='1205'> +2.8458641e+11 </wgt>
<wgt id='1206'> +2.8078149e+11 </wgt>
<wgt id='1207'> +2.9128456e+11 </wgt>
<wgt id='1208'> +2.7084883e+11 </wgt>
<wgt id='1209'> +2.8492764e+11 </wgt>
<wgt id='1210'> +2.8721324e+11 </wgt>
<wgt id='1211'> +2.8181470e+11 </wgt>
<wgt id='1212'> +2.8301017e+11 </wgt>
<wgt id='1213'> +2.8685924e+11 </wgt>
<wgt id='1214'> +2.7890270e+11 </wgt>
<wgt id='1215'> +2.8040791e+11 </wgt>
<wgt id='1216'> +2.7731106e+11 </wgt>
<wgt id='1217'> +2.8015970e+11 </wgt>
<wgt id='1218'> +2.8508301e+11 </wgt>
<wgt id='1219'> +2.9347561e+11 </wgt>
<wgt id='1220'> +2.8070557e+11 </wgt>
<wgt id='1221'> +2.7698739e+11 </wgt>
<wgt id='1222'> +2.7871598e+11 </wgt>
<wgt id='1223'> +2.7382198e+11 </wgt>
<wgt id='1224'> +2.8232651e+11 </wgt>
<wgt id='1225'> +2.8416526e+11 </wgt>
<wgt id='1226'> +2.8551559e+11 </wgt>
<wgt id='1227'> +2.8116638e+11 </wgt>
<wgt id='1228'> +2.8250323e+11 </wgt>
<wgt id='1229'> +3.0001029e+11 </wgt>
<wgt id='1230'> +2.8825951e+11 </wgt>
<wgt id='1231'> +2.7781304e+11 </wgt>
<wgt id='1232'> +2.8769096e+11 </wgt>
<wgt id='1233'> +2.7649847e+11 </wgt>
<wgt id='1234'> +2.7850087e+11 </wgt>
<wgt id='1235'> +3.0006243e+11 </wgt>
<wgt id='1236'> +2.7897165e+11 </wgt>
<wgt id='1237'> +2.9025375e+11 </wgt>
<wgt id='1238'> +2.7999358e+11 </wgt>
<wgt id='1239'> +2.8611383e+11 </wgt>
<wgt id='1240'> +2.7577551e+11 </wgt>
<wgt id='1241'> +2.8828950e+11 </wgt>
<wgt id='1242'> +2.8055022e+11 </wgt>
<wgt id='1243'> +2.8428756e+11 </wgt>
<wgt id='1244'> +2.9030326e+11 </wgt>
<wgt id='1245'> +2.7607025e+11 </wgt>
<wgt id='1246'> +3.0388989e+11 </wgt>
<wgt id='1247'> +2.8135523e+11 </wgt>
<wgt id='1248'> +2.7330087e+11 </wgt>
<wgt id='1249'> +2.7548950e+11 </wgt>
<wgt id='1250'> +2.9400576e+11 </wgt>
<wgt id='1251'> +3.0235543e+11 </wgt>
<wgt id='1252'> +2.8831391e+11 </wgt>
<wgt id='1253'> +2.9328522e+11 </wgt>
<wgt id='1254'> +2.8983893e+11 </wgt>
<wgt id='1255'> +3.0447317e+11 </wgt>
<wgt id='1256'> +3.0434333e+11 </wgt>
<wgt id='1257'> +3.0133782e+11 </wgt>
<wgt id='1258'> +2.9233685e+11 </wgt>
<wgt id='1259'> +3.0591584e+11 </wgt>
<wgt id='1260'> +3.2901214e+11 </wgt>
<wgt id='1261'> +3.1563408e+11 </wgt>
<wgt id='1262'> +2.9499954e+11 </wgt>
<wgt id='1263'> +2.9998329e+11 </wgt>
<wgt id='1264'> +3.0285712e+11 </wgt>
<wgt id='1265'> +2.9309027e+11 </wgt>
<wgt id='1266'> +3.0486878e+11 </wgt>
<wgt id='1267'> +3.4964344e+11 </wgt>
<wgt id='1268'> +2.8872959e+11 </wgt>
<wgt id='1269'> +2.8663560e+11 </wgt>
<wgt id='1270'> +3.0618426e+11 </wgt>
<wgt id='1271'> +2.6601966e+11 </wgt>
<wgt id='1272'> +2.9374614e+11 </wgt>
<wgt id='1273'> +2.9087139e+11 </wgt>
<wgt id='1274'> +2.8699848e+11 </wgt>
<wgt id='1275'> +2.9339085e+11 </wgt>
<wgt id='1276'> +3.0428577e+11 </wgt>
<wgt id='1277'> +2.9951784e+11 </wgt>
<wgt id='1278'> +2.9995298e+11 </wgt>
<wgt id='1279'> +2.7926973e+11 </wgt>
<wgt id='1280'> +2.8582450e+11 </wgt>
<wgt id='1281'> +2.8520164e+11 </wgt>
<wgt id='1282'> +2.9489668e+11 </wgt>
<wgt id='1283'> +3.1200296e+11 </wgt>
<wgt id='1284'> +3.0772641e+11 </wgt>
<wgt id='1285'> +3.0805819e+11 </wgt>
<wgt id='1286'> +3.3142053e+11 </wgt>
<wgt id='1287'> +3.1194607e+11 </wgt>
<wgt id='1288'> +3.3741824e+11 </wgt>
<wgt id='1289'> +3.1583233e+11 </wgt>
<wgt id='1290'> +3.1308163e+11 </wgt>
<wgt id='1291'> +2.7878043e+11 </wgt>
<wgt id='1292'> +3.0397280e+11 </wgt>
<wgt id='1293'> +3.0364288e+11 </wgt>
<wgt id='1294'> +3.2586984e+11 </wgt>
<wgt id='1295'> +3.1088698e+11 </wgt>
<wgt id='1296'> +3.3177889e+11 </wgt>
<wgt id='1297'> +2.8996896e+11 </wgt>
<wgt id='1298'> +2.8943294e+11 </wgt>
<wgt id='1299'> +3.0485058e+11 </wgt>
<wgt id='1300'> +2.8154382e+11 </wgt>
<wgt id='1301'> +2.7971309e+11 </wgt>
<wgt id='1302'> +2.8208695e+11 </wgt>
<wgt id='1303'> +3.0452546e+11 </wgt>
<wgt id='1304'> +3.2841335e+11 </wgt>
<wgt id='1305'> +2.9830169e+11 </wgt>
<wgt id='1306'> +3.0630271e+11 </wgt>
<wgt id='1307'> +2.8659336e+11 </wgt>
<wgt id='1308'> +3.3181084e+11 </wgt>
<wgt id='1309'> +3.0169471e+11 </wgt>
<wgt id='1310'> +3.0394368e+11 </wgt>
<wgt id='1311'> +2.9754755e+11 </wgt>
<wgt id='1312'> +3.1634597e+11 </wgt>
<wgt id='1313'> +3.0501200e+11 </wgt>
<wgt id='1314'> +2.9292040e+11 </wgt>
<wgt id='1315'> +2.8795418e+11 </wgt>
<wgt id='1316'> +2.9999920e+11 </wgt>
<wgt id='1317'> +3.1413170e+11 </wgt>
<wgt id='1318'> +2.9165902e+11 </wgt>
<wgt id='1319'> +2.9690333e+11 </wgt>
<wgt id='1320'> +3.1847642e+11 </wgt>
<wgt id='1321'> +3.0354748e+11 </wgt>
<wgt id='1322'> +3.1316041e+11 </wgt>
<wgt id='1323'> +2.8798342e+11 </wgt>
<wgt id='1324'> +3.0969792e+11 </wgt>
<wgt id='1325'> +3.1333512e+11 </wgt>
<wgt id='1326'> +3.1000346e+11 </wgt>
<wgt id='1327'> +3.1485120e+11 </wgt>
<wgt id='1328'> +2.9848895e+11 </wgt>
<wgt id='1329'> +2.9783350e+11 </wgt>
<wgt id='1330'> +2.8451297e+11 </wgt>
<wgt id='1331'> +3.2384605e+11 </wgt>
<wgt id='1332'> +2.9903016e+11 </wgt>
<wgt id='1333'> +3.0238016e+11 </wgt>
<wgt id='1334'> +3.1921125e+11 </wgt>
<wgt id='1335'> +2.9199694e+11 </wgt>
<wgt id='1336'> +3.1818309e+11 </wgt>
<wgt id='1337'> +3.0958787e+11 </wgt>
<wgt id='1338'> +2.8694134e+11 </wgt>
<wgt id='1339'> +3.1394387e+11 </wgt>
<wgt id='1340'> +3.1102544e+11 </wgt>
<wgt id='1341'> +3.2690686e+11 </wgt>
<wgt id='1342'> +3.0143110e+11 </wgt>
<wgt id='1343'> +3.0907279e+11 </wgt>
<wgt id='1344'> +3.1846595e+11 </wgt>
<wgt id='1345'> +2.6150658e+11 </wgt>
<wgt id='1346'> +3.0508902e+11 </wgt>
<wgt id='1347'> +2.9393044e+11 </wgt>
<wgt id='1348'> +2.9093287e+11 </wgt>
<wgt id='1349'> +2.8817042e+11 </wgt>
<wgt id='1350'> +3.1128286e+11 </wgt>
<wgt id='1351'> +2.9082082e+11 </wgt>
<wgt id='1352'> +3.0454460e+11 </wgt>
<wgt id='1353'> +3.0177327e+11 </wgt>
<wgt id='1354'> +3.1080296e+11 </wgt>
<wgt id='1355'> +2.7921048e+11 </wgt>
<wgt id='1356'> +2.8178579e+11 </wgt>
<wgt id='1357'> +2.7976235e+11 </wgt>
<wgt id='1358'> +2.7772001e+11 </wgt>
<wgt id='1359'> +2.7823165e+11 </wgt>
<wgt id='1360'> +2.7450120e+11 </wgt>
<wgt id='1361'> +2.7782598e+11 </wgt>
<wgt id='1362'> +2.8702696e+11 </wgt>
<wgt id='1363'> +2.7761769e+11 </wgt>
<wgt id='1364'> +2.8464068e+11 </wgt>
<wgt id='1365'> +2.7712033e+11 </wgt>
<wgt id='1366'> +2.7546025e+11 </wgt>
<wgt id='1367'> +2.7860119e+11 </wgt>
<wgt id='1368'> +2.7993050e+11 </wgt>
<wgt id='1369'> +2.8250899e+11 </wgt>
<wgt id='1370'> +2.7562979e+11 </wgt>
<wgt id='1371'> +2.7946589e+11 </wgt>
<wgt id='1372'> +2.7998340e+11 </wgt>
<wgt id='1373'> +2.8256749e+11 </wgt>
<wgt id='1374'> +2.7260085e+11 </wgt>
<wgt id='1375'> +2.8061398e+11 </wgt>
<wgt id='1376'> +2.7827743e+11 </wgt>
<wgt id='1377'> +2.7963838e+11 </wgt>
<wgt id='1378'> +2.7972066e+11 </wgt>
<wgt id='1379'> +2.7761093e+11 </wgt>
<wgt id='1380'> +2.7665521e+11 </wgt>
<wgt id='1381'> +2.8355037e+11 </wgt>
<wgt id='1382'> +2.7781786e+11 </wgt>
<wgt id='1383'> +2.7644038e+11 </wgt>
<wgt id='1384'> +2.7475464e+11 </wgt>
<wgt id='1385'> +2.7425263e+11 </wgt>
<wgt id='1386'> +2.7701874e+11 </wgt>
<wgt id='1387'> +2.7736015e+11 </wgt>
<wgt id='1388'> +2.7457598e+11 </wgt>
<wgt id='1389'> +2.7782387e+11 </wgt>
<wgt id='1390'> +2.8174741e+11 </wgt>
<wgt id='1391'> +2.7829389e+11 </wgt>
<wgt id='1392'> +2.7527114e+11 </wgt>
<wgt id='1393'> +2.8047987e+11 </wgt>
<wgt id='1394'> +2.7837421e+11 </wgt>
<wgt id='1395'> +2.7409055e+11 </wgt>
<wgt id='1396'> +2.7955510e+11 </wgt>
<wgt id='1397'> +2.7979576e+11 </wgt>
<wgt id='1398'> +2.8284441e+11 </wgt>
<wgt id='1399'> +2.7722080e+11 </wgt>
<wgt id='1400'> +2.7401484e+11 </wgt>
<wgt id='1401'> +2.8005487e+11 </wgt>
<wgt id='1402'> +2.8164416e+11 </wgt>
<wgt id='1403'> +2.8778135e+11 </wgt>
<wgt id='1404'> +2.8249242e+11 </wgt>
<wgt id='1405'> +2.8640799e+11 </wgt>
<wgt id='1406'> +2.8233513e+11 </wgt>
<wgt id='1407'> +2.7992240e+11 </wgt>
<wgt id='1408'> +2.8612643e+11 </wgt>
<wgt id='1409'> +2.7435601e+11 </wgt>
<wgt id='1410'> +2.7162141e+11 </wgt>
<wgt id='1411'> +2.7893940e+11 </wgt>
<wgt id='1412'> +2.7811343e+11 </wgt>
<wgt id='1413'> +2.8107376e+11 </wgt>
<wgt id='1414'> +2.8174977e+11 </wgt>
<wgt id='1415'> +2.7945048e+11 </wgt>
<wgt id='1416'> +2.8054783e+11 </wgt>
<wgt id='1417'> +2.7670624e+11 </wgt>
<wgt id='1418'> +2.7836927e+11 </wgt>
<wgt id='1419'> +2.8268305e+11 </wgt>
<wgt id='1420'> +2.7485516e+11 </wgt>
<wgt id='1421'> +2.8582451e+11 </wgt>
<wgt id='1422'> +2.7221036e+11 </wgt>
<wgt id='1423'> +2.8329516e+11 </wgt>
<wgt id='1424'> +2.7979644e+11 </wgt>
<wgt id='1425'> +2.7967108e+11 </wgt>
<wgt id='1426'> +2.8139320e+11 </wgt>
<wgt id='1427'> +2.7789508e+11 </wgt>
<wgt id='1428'> +2.7770292e+11 </wgt>
<wgt id='1429'> +2.7985255e+11 </wgt>
<wgt id='1430'> +2.7574732e+11 </wgt>
<wgt id='1431'> +2.7519738e+11 </wgt>
<wgt id='1432'> +2.7632896e+11 </wgt>
<wgt id='1433'> +2.7514706e+11 </wgt>
<wgt id='1434'> +2.8640619e+11 </wgt>
<wgt id='1435'> +2.7839606e+11 </wgt>
<wgt id='1436'> +2.8310781e+11 </wgt>
<wgt id='1437'> +2.7810101e+11 </wgt>
<wgt id='1438'> +2.7887420e+11 </wgt>
<wgt id='1439'> +2.8516844e+11 </wgt>
<wgt id='1440'> +2.8043804e+11 </wgt>
<wgt id='1441'> +2.7553892e+11 </wgt>
<wgt id='1442'> +2.8245058e+11 </wgt>
<wgt id='1443'> +2.7588936e+11 </wgt>
<wgt id='1444'> +2.8414887e+11 </wgt>
<wgt id='1445'> +2.7885351e+11 </wgt>
<wgt id='1446'> +2.8678659e+11 </wgt>
<wgt id='1447'> +2.7829950e+11 </wgt>
<wgt id='1448'> +2.8179149e+11 </wgt>
<wgt id='1449'> +2.8229857e+11 </wgt>
<wgt id='1450'> +2.7859365e+11 </wgt>
<wgt id='1451'> +2.7979805e+11 </wgt>
<wgt id='1452'> +2.8130664e+11 </wgt>
<wgt id='1453'> +2.8045094e+11 </wgt>
<wgt id='1454'> +2.7064904e+11 </wgt>
<wgt id='1455'> +2.7772083e+11 </wgt>
<wgt id='1456'> +2.7780446e+11 </wgt>
<wgt id='1457'> +2.7867647e+11 </wgt>
<wgt id='1458'> +2.8513412e+11 </wgt>
<wgt id='1459'> +3.1171074e+11 </wgt>
<wgt id='1460'> +3.0657041e+11 </wgt>
<wgt id='1461'> +3.6486736e+11 </wgt>
<wgt id='1462'> +3.0066403e+11 </wgt>
<wgt id='1463'> +3.0088735e+11 </wgt>
<wgt id='1464'> +3.0037759e+11 </wgt>
<wgt id='1465'> +3.0073086e+11 </wgt>
<wgt id='1466'> +3.0060297e+11 </wgt>
<wgt id='1467'> +3.0078285e+11 </wgt>
<wgt id='1468'> +3.0046904e+11 </wgt>
<wgt id='1469'> +3.0023123e+11 </wgt>
<wgt id='1470'> +3.0101551e+11 </wgt>
<wgt id='1471'> +3.0111491e+11 </wgt>
<wgt id='1472'> +3.0019960e+11 </wgt>
<wgt id='1473'> +3.0185618e+11 </wgt>
<wgt id='1474'> +2.9951893e+11 </wgt>
<wgt id='1475'> +3.0179394e+11 </wgt>
<wgt id='1476'> +2.9986306e+11 </wgt>
<wgt id='1477'> +3.0011542e+11 </wgt>
<wgt id='1478'> +3.0194574e+11 </wgt>
<wgt id='1479'> +3.0030849e+11 </wgt>
<wgt id='1480'> +3.0091648e+11 </wgt>
<wgt id='1481'> +3.0012893e+11 </wgt>
<wgt id='1482'> +3.0138763e+11 </wgt>
<wgt id='1483'> +3.0072910e+11 </wgt>
<wgt id='1484'> +3.0057467e+11 </wgt>
<wgt id='1485'> +3.0087433e+11 </wgt>
<wgt id='1486'> +3.0015748e+11 </wgt>
<wgt id='1487'> +3.0094643e+11 </wgt>
<wgt id='1488'> +3.0031146e+11 </wgt>
<wgt id='1489'> +3.0029170e+11 </wgt>
<wgt id='1490'> +3.0167374e+11 </wgt>
<wgt id='1491'> +3.0567563e+11 </wgt>
<wgt id='1492'> +2.9787138e+11 </wgt>
<wgt id='1493'> +2.9701846e+11 </wgt>
<wgt id='1494'> +3.1209812e+11 </wgt>
<wgt id='1495'> +2.9986383e+11 </wgt>
<wgt id='1496'> +3.0152326e+11 </wgt>
<wgt id='1497'> +3.0087074e+11 </wgt>
<wgt id='1498'> +3.0038169e+11 </wgt>
<wgt id='1499'> +3.0271833e+11 </wgt>
<wgt id='1500'> +2.9954209e+11 </wgt>
<wgt id='1501'> +3.0103516e+11 </wgt>
<wgt id='1502'> +2.9968559e+11 </wgt>
<wgt id='1503'> +2.9663441e+11 </wgt>
<wgt id='1504'> +3.0513095e+11 </wgt>
<wgt id='1505'> +3.0140861e+11 </wgt>
<wgt id='1506'> +2.9993172e+11 </wgt>
<wgt id='1507'> +3.0359690e+11 </wgt>
<wgt id='1508'> +2.9628124e+11 </wgt>
<wgt id='1509'> +3.0140938e+11 </wgt>
<wgt id='1510'> +2.9745273e+11 </wgt>
<wgt id='1511'> +3.0188155e+11 </wgt>
<wgt id='1512'> +3.0029430e+11 </wgt>
<wgt id='1513'> +3.0051385e+11 </wgt>
<wgt id='1514'> +3.0084170e+11 </wgt>
<wgt id='1515'> +3.0414547e+11 </wgt>
<wgt id='1516'> +3.0041961e+11 </wgt>
<wgt id='1517'> +3.0016911e+11 </wgt>
<wgt id='1518'> +3.0129744e+11 </wgt>
<wgt id='1519'> +2.9873881e+11 </wgt>
<wgt id='1520'> +3.0202873e+11 </wgt>
<wgt id='1521'> +2.9952140e+11 </wgt>
<wgt id='1522'> +3.0131365e+11 </wgt>
<wgt id='1523'> +3.0186674e+11 </wgt>
<wgt id='1524'> +3.0227965e+11 </wgt>
<wgt id='1525'> +3.0147988e+11 </wgt>
<wgt id='1526'> +3.0201520e+11 </wgt>
<wgt id='1527'> +3.0066403e+11 </wgt>
<wgt id='1528'> +2.9973738e+11 </wgt>
<wgt id='1529'> +3.0125687e+11 </wgt>
<wgt id='1530'> +2.9670409e+11 </wgt>
<wgt id='1531'> +3.0260997e+11 </wgt>
<wgt id='1532'> +3.0164278e+11 </wgt>
<wgt id='1533'> +2.9726791e+11 </wgt>
<wgt id='1534'> +3.0101769e+11 </wgt>
<wgt id='1535'> +3.0571053e+11 </wgt>
<wgt id='1536'> +2.9947885e+11 </wgt>
<wgt id='1537'> +3.0387254e+11 </wgt>
<wgt id='1538'> +2.9880996e+11 </wgt>
<wgt id='1539'> +3.0785873e+11 </wgt>
<wgt id='1540'> +3.0340384e+11 </wgt>
<wgt id='1541'> +3.0405066e+11 </wgt>
<wgt id='1542'> +3.0270765e+11 </wgt>
<wgt id='1543'> +3.0428195e+11 </wgt>
<wgt id='1544'> +3.0091660e+11 </wgt>
<wgt id='1545'> +3.0058205e+11 </wgt>
<wgt id='1546'> +2.9878357e+11 </wgt>
<wgt id='1547'> +3.0491381e+11 </wgt>
<wgt id='1548'> +3.0126057e+11 </wgt>
<wgt id='1549'> +2.9909888e+11 </wgt>
<wgt id='1550'> +3.0447483e+11 </wgt>
<wgt id='1551'> +3.0322293e+11 </wgt>
<wgt id='1552'> +3.0259658e+11 </wgt>
<wgt id='1553'> +3.0673383e+11 </wgt>
<wgt id='1554'> +3.0275305e+11 </wgt>
<wgt id='1555'> +3.0354033e+11 </wgt>
<wgt id='1556'> +3.0471404e+11 </wgt>
<wgt id='1557'> +3.0217384e+11 </wgt>
<wgt id='1558'> +3.0293968e+11 </wgt>
<wgt id='1559'> +3.0002806e+11 </wgt>
<wgt id='1560'> +3.0143693e+11 </wgt>
<wgt id='1561'> +3.0029899e+11 </wgt>
<wgt id='1562'> +3.0095471e+11 </wgt>
<wgt id='1563'> +3.0284371e+11 </wgt>
<wgt id='1564'> +3.0229661e+11 </wgt>
<wgt id='1565'> +3.0532021e+11 </wgt>
<wgt id='1566'> +3.0263130e+11 </wgt>
<wgt id='1567'> +3.0445517e+11 </wgt>
<wgt id='1568'> +3.0247434e+11 </wgt>
<wgt id='1569'> +3.0203980e+11 </wgt>
<wgt id='1570'> +3.0884920e+11 </wgt>
<wgt id='1571'> +3.0265633e+11 </wgt>
<wgt id='1572'> +3.0447134e+11 </wgt>
<wgt id='1573'> +3.0660695e+11 </wgt>
<wgt id='1574'> +2.5694249e+11 </wgt>
<wgt id='1575'> +2.5701031e+11 </wgt>
<wgt id='1576'> +2.5687401e+11 </wgt>
<wgt id='1577'> +2.5696054e+11 </wgt>
<wgt id='1578'> +2.5753460e+11 </wgt>
<wgt id='1579'> +2.5774929e+11 </wgt>
<wgt id='1580'> +2.5751612e+11 </wgt>
<wgt id='1581'> +2.5644243e+11 </wgt>
<wgt id='1582'> +2.5616837e+11 </wgt>
<wgt id='1583'> +2.5648156e+11 </wgt>
<wgt id='1584'> +2.5751057e+11 </wgt>
<wgt id='1585'> +2.5718230e+11 </wgt>
<wgt id='1586'> +2.5610560e+11 </wgt>
<wgt id='1587'> +2.5627176e+11 </wgt>
<wgt id='1588'> +2.5581994e+11 </wgt>
<wgt id='1589'> +2.5663093e+11 </wgt>
<wgt id='1590'> +2.5678715e+11 </wgt>
<wgt id='1591'> +2.5702142e+11 </wgt>
<wgt id='1592'> +2.5595497e+11 </wgt>
<wgt id='1593'> +2.5588277e+11 </wgt>
<wgt id='1594'> +2.5796701e+11 </wgt>
<wgt id='1595'> +2.5444769e+11 </wgt>
<wgt id='1596'> +2.6110229e+11 </wgt>
<wgt id='1597'> +2.5875279e+11 </wgt>
<wgt id='1598'> +2.5889109e+11 </wgt>
<wgt id='1599'> +2.5396031e+11 </wgt>
<wgt id='1600'> +2.6179211e+11 </wgt>
<wgt id='1601'> +2.5910070e+11 </wgt>
<wgt id='1602'> +2.5699415e+11 </wgt>
<wgt id='1603'> +2.7042882e+11 </wgt>
<wgt id='1604'> +2.5707917e+11 </wgt>
</rwgt>
</event>
<event>
 9      1 +2.8343000e+11 1.40000000e+03 7.81738600e-03 7.88881200e-02
       21 -1    0    0  504  503 +0.0000000000e+00 +0.0000000000e+00 +1.6005125346e+03 1.6005125346e+03 0.0000000000e+00 0.0000e+00 -1.0000e+00
       21 -1    0    0  503  504 -0.0000000000e+00 -0.0000000000e+00 -3.0615178355e+02 3.0615178355e+02 0.0000000000e+00 0.0000e+00 -1.0000e+00
       45  2    1    2    0    0 +0.0000000000e+00 +0.0000000000e+00 +1.2943607511e+03 1.9066643182e+03 1.3999996673e+03 0.0000e+00 0.0000e+00
       25  2    3    3    0    0 -2.5700769203e+02 -9.7605025507e+01 +1.5137657426e+03 1.5435966838e+03 1.2499721567e+02 0.0000e+00 0.0000e+00
       35  2    3    3    0    0 +2.5700769203e+02 +9.7605025507e+01 -2.1940499155e+02 3.6306763439e+02 8.9999233654e+01 0.0000e+00 0.0000e+00
        5  1    5    5  501    0 +1.6639128026e+02 +9.8203510704e+01 -1.1552490411e+02 2.2515272356e+02 4.2140000000e+00 0.0000e+00 1.0000e+00
       -5  1    5    5    0  501 +9.0616411761e+01 -5.9848519654e-01 -1.0388008744e+02 1.3791491082e+02 4.2140000000e+00 0.0000e+00 1.0000e+00
        5  1    4    4  502    0 -1.0262162106e+02 +2.0878260185e+01 +4.3832214214e+02 4.5067855168e+02 4.2140000000e+00 0.0000e+00 -1.0000e+00
       -5  1    4    4    0  502 -1.5438607097e+02 -1.1848328569e+02 +1.0754436005e+03 1.0929181321e+03 4.2140000000e+00 0.0000e+00 -1.0000e+00
<mgrwt>
<rscale>  0 0.13999997E+04</rscale>
<asrwt>0</asrwt>
<pdfrwt beam="1">  1       21 0.24623269E+00 0.13999997E+04</pdfrwt>
<pdfrwt beam="2">  1       21 0.47100275E-01 0.13999997E+04</pdfrwt>
<totfact> 0.18851512E+02</totfact>
</mgrwt>
<rwgt>
<wgt id='1001'> +2.8343000e+11 </wgt>
<wgt id='1002'> +3.3066599e+11 </wgt>
<wgt id='1003'> +3.3064602e+11 </wgt>
<wgt id='1004'> +3.7715911e+11 </wgt>
<wgt id='1005'> +2.8343000e+11 </wgt>
<wgt id='1006'> +2.8343000e+11 </wgt>
<wgt id='1007'> +3.3066599e+11 </wgt>
<wgt id='1008'> +3.3064602e+11 </wgt>
<wgt id='1009'> +3.7715911e+11 </wgt>
<wgt id='1010'> +2.8343000e+11 </wgt>
<wgt id='1011'> +2.8343000e+11 </wgt>
<wgt id='1012'> +3.3066599e+11 </wgt>
<wgt id='1013'> +3.3064602e+11 </wgt>
<wgt id='1014'> +3.7715911e+11 </wgt>
<wgt id='1015'> +2.8343000e+11 </wgt>
<wgt id='1016'> +2.5301768e+11 </wgt>
<wgt id='1017'> +2.9236189e+11 </wgt>
<wgt id='1018'> +2.9234537e+11 </wgt>
<wgt id='1019'> +3.3064602e+11 </wgt>
<wgt id='1020'> +2.5301768e+11 </wgt>
<wgt id='1021'> +2.5301768e+11 </wgt>
<wgt id='1022'> +2.9236189e+11 </wgt>
<wgt id='1023'> +2.9234537e+11 </wgt>
<wgt id='1024'> +3.3064602e+11 </wgt>
<wgt id='1025'> +2.5301768e+11 </wgt>
<wgt id='1026'> +2.5301768e+11 </wgt>
<wgt id='1027'> +2.9236189e+11 </wgt>
<wgt id='1028'> +2.9234537e+11 </wgt>
<wgt id='1029'> +3.3064602e+11 </wgt>
<wgt id='1030'> +2.5301768e+11 </wgt>
<wgt id='1031'> +3.1988114e+11 </wgt>
<wgt id='1032'> +3.7718353e+11 </wgt>
<wgt id='1033'> +3.7715911e+11 </wgt>
<wgt id='1034'> +4.3438088e+11 </wgt>
<wgt id='1035'> +3.1988115e+11 </wgt>
<wgt id='1036'> +3.1988114e+11 </wgt>
<wgt id='1037'> +3.7718353e+11 </wgt>
<wgt id='1038'> +3.7715911e+11 </wgt>
<wgt id='1039'> +4.3438088e+11 </wgt>
<wgt id='1040'> +3.1988115e+11 </wgt>
<wgt id='1041'> +3.1988114e+11 </wgt>
<wgt id='1042'> +3.7718353e+11 </wgt>
<wgt id='1043'> +3.7715911e+11 </wgt>
<wgt id='1044'> +4.3438088e+11 </wgt>
<wgt id='1045'> +3.1988115e+11 </wgt>
<wgt id='1046'> +2.8343000e+11 </wgt>
<wgt id='1047'> +2.8343000e+11 </wgt>
<wgt id='1048'> +2.8343000e+11 </wgt>
<wgt id='1049'> +2.8309110e+11 </wgt>
<wgt id='1050'> +2.8304635e+11 </wgt>
<wgt id='1051'> +2.8357221e+11 </wgt>
<wgt id='1052'> +2.8388381e+11 </wgt>
<wgt id='1053'> +2.8146070e+11 </wgt>
<wgt id='1054'> +2.8421801e+11 </wgt>
<wgt id='1055'> +2.8198260e+11 </wgt>
<wgt id='1056'> +2.8168402e+11 </wgt>
<wgt id='1057'> +2.8221195e+11 </wgt>
<wgt id='1058'> +2.8249202e+11 </wgt>
<wgt id='1059'> +2.8585174e+11 </wgt>
<wgt id='1060'> +2.8352077e+11 </wgt>
<wgt id='1061'> +2.8417167e+11 </wgt>
<wgt id='1062'> +2.8432182e+11 </wgt>
<wgt id='1063'> +2.8474518e+11 </wgt>
<wgt id='1064'> +2.8430997e+11 </wgt>
<wgt id='1065'> +2.8518036e+11 </wgt>
<wgt id='1066'> +2.8196078e+11 </wgt>
<wgt id='1067'> +2.8238128e+11 </wgt>
<wgt id='1068'> +2.8417822e+11 </wgt>
<wgt id='1069'> +2.8243776e+11 </wgt>
<wgt id='1070'> +2.8401388e+11 </wgt>
<wgt id='1071'> +2.8309087e+11 </wgt>
<wgt id='1072'> +2.8415253e+11 </wgt>
<wgt id='1073'> +2.8190913e+11 </wgt>
<wgt id='1074'> +2.8222979e+11 </wgt>
<wgt id='1075'> +2.8282672e+11 </wgt>
<wgt id='1076'> +2.8245162e+11 </wgt>
<wgt id='1077'> +2.8184599e+11 </wgt>
<wgt id='1078'> +2.8349658e+11 </wgt>
<wgt id='1079'> +2.8243978e+11 </wgt>
<wgt id='1080'> +2.8262415e+11 </wgt>
<wgt id='1081'> +2.8318455e+11 </wgt>
<wgt id='1082'> +2.8299976e+11 </wgt>
<wgt id='1083'> +2.8440478e+11 </wgt>
<wgt id='1084'> +2.8400318e+11 </wgt>
<wgt id='1085'> +2.8231211e+11 </wgt>
<wgt id='1086'> +2.8432717e+11 </wgt>
<wgt id='1087'> +2.8366585e+11 </wgt>
<wgt id='1088'> +2.8263226e+11 </wgt>
<wgt id='1089'> +2.8252995e+11 </wgt>
<wgt id='1090'> +2.8429164e+11 </wgt>
<wgt id='1091'> +2.8370612e+11 </wgt>
<wgt id='1092'> +2.8365317e+11 </wgt>
<wgt id='1093'> +2.8337674e+11 </wgt>
<wgt id='1094'> +2.8191031e+11 </wgt>
<wgt id='1095'> +2.8380719e+11 </wgt>
<wgt id='1096'> +2.8341976e+11 </wgt>
<wgt id='1097'> +2.8271445e+11 </wgt>
<wgt id='1098'> +2.8308563e+11 </wgt>
<wgt id='1099'> +2.8327995e+11 </wgt>
<wgt id='1100'> +2.8395383e+11 </wgt>
<wgt id='1101'> +2.8337911e+11 </wgt>
<wgt id='1102'> +2.8324972e+11 </wgt>
<wgt id='1103'> +2.8234128e+11 </wgt>
<wgt id='1104'> +2.8354231e+11 </wgt>
<wgt id='1105'> +2.8354337e+11 </wgt>
<wgt id='1106'> +2.8390766e+11 </wgt>
<wgt id='1107'> +2.8381183e+11 </wgt>
<wgt id='1108'> +2.8316260e+11 </wgt>
<wgt id='1109'> +2.8335644e+11 </wgt>
<wgt id='1110'> +2.8360551e+11 </wgt>
<wgt id='1111'> +2.8392768e+11 </wgt>
<wgt id='1112'> +2.8324961e+11 </wgt>
<wgt id='1113'> +2.8381657e+11 </wgt>
<wgt id='1114'> +2.8311976e+11 </wgt>
<wgt id='1115'> +2.8272085e+11 </wgt>
<wgt id='1116'> +2.8434293e+11 </wgt>
<wgt id='1117'> +2.8332264e+11 </wgt>
<wgt id='1118'> +2.8393142e+11 </wgt>
<wgt id='1119'> +2.8286453e+11 </wgt>
<wgt id='1120'> +2.8280553e+11 </wgt>
<wgt id='1121'> +2.8346836e+11 </wgt>
<wgt id='1122'> +2.8289393e+11 </wgt>
<wgt id='1123'> +2.8336580e+11 </wgt>
<wgt id='1124'> +2.8358544e+11 </wgt>
<wgt id='1125'> +2.8362270e+11 </wgt>
<wgt id='1126'> +2.8358053e+11 </wgt>
<wgt id='1127'> +2.8333009e+11 </wgt>
<wgt id='1128'> +2.8330485e+11 </wgt>
<wgt id='1129'> +2.8316757e+11 </wgt>
<wgt id='1130'> +2.8345617e+11 </wgt>
<wgt id='1131'> +2.8414338e+11 </wgt>
<wgt id='1132'> +2.8326417e+11 </wgt>
<wgt id='1133'> +2.8363255e+11 </wgt>
<wgt id='1134'> +2.8336849e+11 </wgt>
<wgt id='1135'> +2.8347849e+11 </wgt>
<wgt id='1136'> +2.8323092e+11 </wgt>
<wgt id='1137'> +2.8313371e+11 </wgt>
<wgt id='1138'> +2.8359833e+11 </wgt>
<wgt id='1139'> +2.8362706e+11 </wgt>
<wgt id='1140'> +2.8375691e+11 </wgt>
<wgt id='1141'> +2.8307300e+11 </wgt>
<wgt id='1142'> +2.8348476e+11 </wgt>
<wgt id='1143'> +2.8367972e+11 </wgt>
<wgt id='1144'> +2.8332722e+11 </wgt>
<wgt id='1145'> +2.8363186e+11 </wgt>
<wgt id='1146'> +2.8356433e+11 </wgt>
<wgt id='1147'> +2.8350911e+11 </wgt>
<wgt id='1148'> +2.8343000e+11 </wgt>
<wgt id='1149'> +2.8343000e+11 </wgt>
<wgt id='1150'> +2.9160045e+11 </wgt>
<wgt id='1151'> +2.7683688e+11 </wgt>
<wgt id='1152'> +2.7170499e+11 </wgt>
<wgt id='1153'> +2.8553856e+11 </wgt>
<wgt id='1154'> +2.7634286e+11 </wgt>
<wgt id='1155'> +2.9916423e+11 </wgt>
<wgt id='1156'> +2.8347399e+11 </wgt>
<wgt id='1157'> +2.7861732e+11 </wgt>
<wgt id='1158'> +2.7761307e+11 </wgt>
<wgt id='1159'> +2.9086913e+11 </wgt>
<wgt id='1160'> +2.8209686e+11 </wgt>
<wgt id='1161'> +2.9689094e+11 </wgt>
<wgt id='1162'> +2.8682076e+11 </wgt>
<wgt id='1163'> +2.8821067e+11 </wgt>
<wgt id='1164'> +2.7393011e+11 </wgt>
<wgt id='1165'> +2.7434443e+11 </wgt>
<wgt id='1166'> +2.8378330e+11 </wgt>
<wgt id='1167'> +2.7955383e+11 </wgt>
<wgt id='1168'> +2.7166723e+11 </wgt>
<wgt id='1169'> +2.7605601e+11 </wgt>
<wgt id='1170'> +2.8444483e+11 </wgt>
<wgt id='1171'> +2.7434977e+11 </wgt>
<wgt id='1172'> +2.7124923e+11 </wgt>
<wgt id='1173'> +2.8779706e+11 </wgt>
<wgt id='1174'> +2.7822678e+11 </wgt>
<wgt id='1175'> +2.7864581e+11 </wgt>
<wgt id='1176'> +2.8874823e+11 </wgt>
<wgt id='1177'> +2.8272496e+11 </wgt>
<wgt id='1178'> +2.8653919e+11 </wgt>
<wgt id='1179'> +2.9181890e+11 </wgt>
<wgt id='1180'> +2.7683126e+11 </wgt>
<wgt id='1181'> +2.9124948e+11 </wgt>
<wgt id='1182'> +2.8312493e+11 </wgt>
<wgt id='1183'> +2.8966016e+11 </wgt>
<wgt id='1184'> +2.6551198e+11 </wgt>
<wgt id='1185'> +2.9157270e+11 </wgt>
<wgt id='1186'> +2.7879237e+11 </wgt>
<wgt id='1187'> +2.8880859e+11 </wgt>
<wgt id='1188'> +2.9435954e+11 </wgt>
<wgt id='1189'> +2.8440399e+11 </wgt>
<wgt id='1190'> +2.8078493e+11 </wgt>
<wgt id='1191'> +2.9360425e+11 </wgt>
<wgt id='1192'> +2.8722616e+11 </wgt>
<wgt id='1193'> +2.8766964e+11 </wgt>
<wgt id='1194'> +2.7563950e+11 </wgt>
<wgt id='1195'> +2.9076765e+11 </wgt>
<wgt id='1196'> +2.8863738e+11 </wgt>
<wgt id='1197'> +2.9081061e+11 </wgt>
<wgt id='1198'> +2.8532431e+11 </wgt>
<wgt id='1199'> +2.8388387e+11 </wgt>
<wgt id='1200'> +2.9334956e+11 </wgt>
<wgt id='1201'> +2.8553559e+11 </wgt>
<wgt id='1202'> +2.8276586e+11 </wgt>
<wgt id='1203'> +2.8801879e+11 </wgt>
<wgt id='1204'> +2.7803735e+11 </wgt>
<wgt id='1205'> +2.8832769e+11 </wgt>
<wgt id='1206'> +2.8089341e+11 </wgt>
<wgt id='1207'> +2.9357637e+11 </wgt>
<wgt id='1208'> +2.7380758e+11 </wgt>
<wgt id='1209'> +2.8555409e+11 </wgt>
<wgt id='1210'> +2.8590518e+11 </wgt>
<wgt id='1211'> +2.7871505e+11 </wgt>
<wgt id='1212'> +2.8103590e+11 </wgt>
<wgt id='1213'> +2.8336068e+11 </wgt>
<wgt id='1214'> +2.8043613e+11 </wgt>
<wgt id='1215'> +2.7853666e+11 </wgt>
<wgt id='1216'> +2.7057042e+11 </wgt>
<wgt id='1217'> +2.8451502e+11 </wgt>
<wgt id='1218'> +2.8399434e+11 </wgt>
<wgt id='1219'> +2.9181621e+11 </wgt>
<wgt id='1220'> +2.8098462e+11 </wgt>
<wgt id='1221'> +2.7502300e+11 </wgt>
<wgt id='1222'> +2.7946854e+11 </wgt>
<wgt id='1223'> +2.7480108e+11 </wgt>
<wgt id='1224'> +2.8170981e+11 </wgt>
<wgt id='1225'> +2.7705200e+11 </wgt>
<wgt id='1226'> +2.8485202e+11 </wgt>
<wgt id='1227'> +2.7845077e+11 </wgt>
<wgt id='1228'> +2.8095358e+11 </wgt>
<wgt id='1229'> +2.9815646e+11 </wgt>
<wgt id='1230'> +2.8654483e+11 </wgt>
<wgt id='1231'> +2.7434443e+11 </wgt>
<wgt id='1232'> +2.8991932e+11 </wgt>
<wgt id='1233'> +2.7804131e+11 </wgt>
<wgt id='1234'> +2.7857427e+11 </wgt>
<wgt id='1235'> +3.0315014e+11 </wgt>
<wgt id='1236'> +2.8273505e+11 </wgt>
<wgt id='1237'> +2.9342880e+11 </wgt>
<wgt id='1238'> +2.8342698e+11 </wgt>
<wgt id='1239'> +2.8896629e+11 </wgt>
<wgt id='1240'> +2.7415180e+11 </wgt>
<wgt id='1241'> +2.9117341e+11 </wgt>
<wgt id='1242'> +2.8231801e+11 </wgt>
<wgt id='1243'> +2.8172988e+11 </wgt>
<wgt id='1244'> +2.9277365e+11 </wgt>
<wgt id='1245'> +2.6953930e+11 </wgt>
<wgt id='1246'> +3.0331718e+11 </wgt>
<wgt id='1247'> +2.8147018e+11 </wgt>
<wgt id='1248'> +2.7471256e+11 </wgt>
<wgt id='1249'> +2.7569301e+11 </wgt>
<wgt id='1250'> +2.9631887e+11 </wgt>
<wgt id='1251'> +3.0716338e+11 </wgt>
<wgt id='1252'> +2.8928982e+11 </wgt>
<wgt id='1253'> +3.0387892e+11 </wgt>
<wgt id='1254'> +2.9272701e+11 </wgt>
<wgt id='1255'> +3.1211786e+11 </wgt>
<wgt id='1256'> +3.0918066e+11 </wgt>
<wgt id='1257'> +3.0209695e+11 </wgt>
<wgt id='1258'> +2.9230776e+11 </wgt>
<wgt id='1259'> +3.1814541e+11 </wgt>
<wgt id='1260'> +3.3809760e+11 </wgt>
<wgt id='1261'> +3.2273196e+11 </wgt>
<wgt id='1262'> +3.0082712e+11 </wgt>
<wgt id='1263'> +3.0522426e+11 </wgt>
<wgt id='1264'> +3.0534813e+11 </wgt>
<wgt id='1265'> +2.8984742e+11 </wgt>
<wgt id='1266'> +3.0851454e+11 </wgt>
<wgt id='1267'> +3.7473063e+11 </wgt>
<wgt id='1268'> +2.8729958e+11 </wgt>
<wgt id='1269'> +2.8637188e+11 </wgt>
<wgt id='1270'> +3.1706475e+11 </wgt>
<wgt id='1271'> +2.5957631e+11 </wgt>
<wgt id='1272'> +2.9847801e+11 </wgt>
<wgt id='1273'> +2.9308023e+11 </wgt>
<wgt id='1274'> +2.9067947e+11 </wgt>
<wgt id='1275'> +2.9122700e+11 </wgt>
<wgt id='1276'> +3.1311533e+11 </wgt>
<wgt id='1277'> +3.1009069e+11 </wgt>
<wgt id='1278'> +3.0700757e+11 </wgt>
<wgt id='1279'> +2.7867508e+11 </wgt>
<wgt id='1280'> +2.9084306e+11 </wgt>
<wgt id='1281'> +2.8666031e+11 </wgt>
<wgt id='1282'> +2.9430566e+11 </wgt>
<wgt id='1283'> +3.2505449e+11 </wgt>
<wgt id='1284'> +3.0283378e+11 </wgt>
<wgt id='1285'> +3.0687547e+11 </wgt>
<wgt id='1286'> +3.4106684e+11 </wgt>
<wgt id='1287'> +3.3255767e+11 </wgt>
<wgt id='1288'> +3.5679466e+11 </wgt>
<wgt id='1289'> +3.2414974e+11 </wgt>
<wgt id='1290'> +3.1625174e+11 </wgt>
<wgt id='1291'> +2.8164365e+11 </wgt>
<wgt id='1292'> +3.1017536e+11 </wgt>
<wgt id='1293'> +3.0595893e+11 </wgt>
<wgt id='1294'> +3.4239780e+11 </wgt>
<wgt id='1295'> +3.1636683e+11 </wgt>
<wgt id='1296'> +3.4956724e+11 </wgt>
<wgt id='1297'> +2.8583335e+11 </wgt>
<wgt id='1298'> +2.9341211e+11 </wgt>
<wgt id='1299'> +3.0951062e+11 </wgt>
<wgt id='1300'> +2.6990115e+11 </wgt>
<wgt id='1301'> +2.8061963e+11 </wgt>
<wgt id='1302'> +2.7993209e+11 </wgt>
<wgt id='1303'> +3.1140435e+11 </wgt>
<wgt id='1304'> +3.4653970e+11 </wgt>
<wgt id='1305'> +2.9794351e+11 </wgt>
<wgt id='1306'> +3.0784042e+11 </wgt>
<wgt id='1307'> +2.7688845e+11 </wgt>
<wgt id='1308'> +3.3873544e+11 </wgt>
<wgt id='1309'> +3.0896650e+11 </wgt>
<wgt id='1310'> +3.0762600e+11 </wgt>
<wgt id='1311'> +2.9226429e+11 </wgt>
<wgt id='1312'> +3.3599655e+11 </wgt>
<wgt id='1313'> +3.1455314e+11 </wgt>
<wgt id='1314'> +2.8481224e+11 </wgt>
<wgt id='1315'> +2.8847328e+11 </wgt>
<wgt id='1316'> +3.0133767e+11 </wgt>
<wgt id='1317'> +3.3107860e+11 </wgt>
<wgt id='1318'> +2.9283683e+11 </wgt>
<wgt id='1319'> +3.0288296e+11 </wgt>
<wgt id='1320'> +3.2587718e+11 </wgt>
<wgt id='1321'> +3.1291885e+11 </wgt>
<wgt id='1322'> +3.2701653e+11 </wgt>
<wgt id='1323'> +2.7835210e+11 </wgt>
<wgt id='1324'> +3.2010578e+11 </wgt>
<wgt id='1325'> +3.1730781e+11 </wgt>
<wgt id='1326'> +3.1546192e+11 </wgt>
<wgt id='1327'> +3.2765805e+11 </wgt>
<wgt id='1328'> +3.0688893e+11 </wgt>
<wgt id='1329'> +2.9694238e+11 </wgt>
<wgt id='1330'> +2.8067300e+11 </wgt>
<wgt id='1331'> +3.2919021e+11 </wgt>
<wgt id='1332'> +3.1109324e+11 </wgt>
<wgt id='1333'> +3.0415036e+11 </wgt>
<wgt id='1334'> +3.3017291e+11 </wgt>
<wgt id='1335'> +2.8768376e+11 </wgt>
<wgt id='1336'> +3.3385696e+11 </wgt>
<wgt id='1337'> +3.1250048e+11 </wgt>
<wgt id='1338'> +2.8468250e+11 </wgt>
<wgt id='1339'> +3.0754525e+11 </wgt>
<wgt id='1340'> +3.2694319e+11 </wgt>
<wgt id='1341'> +3.5287270e+11 </wgt>
<wgt id='1342'> +2.9264584e+11 </wgt>
<wgt id='1343'> +3.1108312e+11 </wgt>
<wgt id='1344'> +3.2880501e+11 </wgt>
<wgt id='1345'> +2.4688758e+11 </wgt>
<wgt id='1346'> +3.0861524e+11 </wgt>
<wgt id='1347'> +3.0205979e+11 </wgt>
<wgt id='1348'> +2.9263008e+11 </wgt>
<wgt id='1349'> +2.9249297e+11 </wgt>
<wgt id='1350'> +3.2725518e+11 </wgt>
<wgt id='1351'> +2.8864743e+11 </wgt>
<wgt id='1352'> +3.0921419e+11 </wgt>
<wgt id='1353'> +3.0825313e+11 </wgt>
<wgt id='1354'> +3.1619691e+11 </wgt>
<wgt id='1355'> +2.8350935e+11 </wgt>
<wgt id='1356'> +2.8592125e+11 </wgt>
<wgt id='1357'> +2.8536836e+11 </wgt>
<wgt id='1358'> +2.8208417e+11 </wgt>
<wgt id='1359'> +2.8116459e+11 </wgt>
<wgt id='1360'> +2.7893315e+11 </wgt>
<wgt id='1361'> +2.8168822e+11 </wgt>
<wgt id='1362'> +2.9306846e+11 </wgt>
<wgt id='1363'> +2.8386771e+11 </wgt>
<wgt id='1364'> +2.9293964e+11 </wgt>
<wgt id='1365'> +2.8128044e+11 </wgt>
<wgt id='1366'> +2.7990843e+11 </wgt>
<wgt id='1367'> +2.8022108e+11 </wgt>
<wgt id='1368'> +2.8580820e+11 </wgt>
<wgt id='1369'> +2.8707369e+11 </wgt>
<wgt id='1370'> +2.7668709e+11 </wgt>
<wgt id='1371'> +2.8179095e+11 </wgt>
<wgt id='1372'> +2.8044113e+11 </wgt>
<wgt id='1373'> +2.8851839e+11 </wgt>
<wgt id='1374'> +2.8000180e+11 </wgt>
<wgt id='1375'> +2.8577471e+11 </wgt>
<wgt id='1376'> +2.8299726e+11 </wgt>
<wgt id='1377'> +2.8290695e+11 </wgt>
<wgt id='1378'> +2.8744297e+11 </wgt>
<wgt id='1379'> +2.8134681e+11 </wgt>
<wgt id='1380'> +2.8095736e+11 </wgt>
<wgt id='1381'> +2.8707863e+11 </wgt>
<wgt id='1382'> +2.8059796e+11 </wgt>
<wgt id='1383'> +2.7979358e+11 </wgt>
<wgt id='1384'> +2.7624467e+11 </wgt>
<wgt id='1385'> +2.7724398e+11 </wgt>
<wgt id='1386'> +2.7937105e+11 </wgt>
<wgt id='1387'> +2.8236998e+11 </wgt>
<wgt id='1388'> +2.7972951e+11 </wgt>
<wgt id='1389'> +2.8023430e+11 </wgt>
<wgt id='1390'> +2.8718093e+11 </wgt>
<wgt id='1391'> +2.8583524e+11 </wgt>
<wgt id='1392'> +2.7651892e+11 </wgt>
<wgt id='1393'> +2.8683989e+11 </wgt>
<wgt id='1394'> +2.8475055e+11 </wgt>
<wgt id='1395'> +2.7705123e+11 </wgt>
<wgt id='1396'> +2.8367747e+11 </wgt>
<wgt id='1397'> +2.8313356e+11 </wgt>
<wgt id='1398'> +2.9109983e+11 </wgt>
<wgt id='1399'> +2.8175197e+11 </wgt>
<wgt id='1400'> +2.7700576e+11 </wgt>
<wgt id='1401'> +2.8353257e+11 </wgt>
<wgt id='1402'> +2.8545125e+11 </wgt>
<wgt id='1403'> +2.9602595e+11 </wgt>
<wgt id='1404'> +2.8850876e+11 </wgt>
<wgt id='1405'> +2.9348252e+11 </wgt>
<wgt id='1406'> +2.8936929e+11 </wgt>
<wgt id='1407'> +2.8693540e+11 </wgt>
<wgt id='1408'> +2.9474657e+11 </wgt>
<wgt id='1409'> +2.7658085e+11 </wgt>
<wgt id='1410'> +2.7575747e+11 </wgt>
<wgt id='1411'> +2.8312745e+11 </wgt>
<wgt id='1412'> +2.8607967e+11 </wgt>
<wgt id='1413'> +2.9039476e+11 </wgt>
<wgt id='1414'> +2.8613842e+11 </wgt>
<wgt id='1415'> +2.7876771e+11 </wgt>
<wgt id='1416'> +2.8342341e+11 </wgt>
<wgt id='1417'> +2.8133103e+11 </wgt>
<wgt id='1418'> +2.8121179e+11 </wgt>
<wgt id='1419'> +2.8591321e+11 </wgt>
<wgt id='1420'> +2.7367366e+11 </wgt>
<wgt id='1421'> +2.9159901e+11 </wgt>
<wgt id='1422'> +2.7467451e+11 </wgt>
<wgt id='1423'> +2.8593927e+11 </wgt>
<wgt id='1424'> +2.8201443e+11 </wgt>
<wgt id='1425'> +2.8297794e+11 </wgt>
<wgt id='1426'> +2.8709204e+11 </wgt>
<wgt id='1427'> +2.8042962e+11 </wgt>
<wgt id='1428'> +2.7980266e+11 </wgt>
<wgt id='1429'> +2.8485300e+11 </wgt>
<wgt id='1430'> +2.8023834e+11 </wgt>
<wgt id='1431'> +2.8322357e+11 </wgt>
<wgt id='1432'> +2.7649075e+11 </wgt>
<wgt id='1433'> +2.7566739e+11 </wgt>
<wgt id='1434'> +2.8817140e+11 </wgt>
<wgt id='1435'> +2.8402723e+11 </wgt>
<wgt id='1436'> +2.8743450e+11 </wgt>
<wgt id='1437'> +2.8094759e+11 </wgt>
<wgt id='1438'> +2.8335686e+11 </wgt>
<wgt id='1439'> +2.9274529e+11 </wgt>
<wgt id='1440'> +2.8271671e+11 </wgt>
<wgt id='1441'> +2.7868439e+11 </wgt>
<wgt id='1442'> +2.8414010e+11 </wgt>
<wgt id='1443'> +2.7794154e+11 </wgt>
<wgt id='1444'> +2.9321609e+11 </wgt>
<wgt id='1445'> +2.8030212e+11 </wgt>
<wgt id='1446'> +2.9540647e+11 </wgt>
<wgt id='1447'> +2.8585533e+11 </wgt>
<wgt id='1448'> +2.8655285e+11 </wgt>
<wgt id='1449'> +2.8606348e+11 </wgt>
<wgt id='1450'> +2.8191676e+11 </wgt>
<wgt id='1451'> +2.8136285e+11 </wgt>
<wgt id='1452'> +2.8627249e+11 </wgt>
<wgt id='1453'> +2.8725714e+11 </wgt>
<wgt id='1454'> +2.7371559e+11 </wgt>
<wgt id='1455'> +2.8181194e+11 </wgt>
<wgt id='1456'> +2.8107336e+11 </wgt>
<wgt id='1457'> +2.8423117e+11 </wgt>
<wgt id='1458'> +2.9248382e+11 </wgt>
<wgt id='1459'> +3.1548383e+11 </wgt>
<wgt id='1460'> +3.0984326e+11 </wgt>
<wgt id='1461'> +3.7574810e+11 </wgt>
<wgt id='1462'> +3.0553582e+11 </wgt>
<wgt id='1463'> +3.0574829e+11 </wgt>
<wgt id='1464'> +3.0526332e+11 </wgt>
<wgt id='1465'> +3.0560707e+11 </wgt>
<wgt id='1466'> +3.0547075e+11 </wgt>
<wgt id='1467'> +3.0563143e+11 </wgt>
<wgt id='1468'> +3.0537894e+11 </wgt>
<wgt id='1469'> +3.0510381e+11 </wgt>
<wgt id='1470'> +3.0588665e+11 </wgt>
<wgt id='1471'> +3.0597875e+11 </wgt>
<wgt id='1472'> +3.0507958e+11 </wgt>
<wgt id='1473'> +3.0677199e+11 </wgt>
<wgt id='1474'> +3.0434844e+11 </wgt>
<wgt id='1475'> +3.0669912e+11 </wgt>
<wgt id='1476'> +3.0471133e+11 </wgt>
<wgt id='1477'> +3.0499102e+11 </wgt>
<wgt id='1478'> +3.0680887e+11 </wgt>
<wgt id='1479'> +3.0529888e+11 </wgt>
<wgt id='1480'> +3.0570825e+11 </wgt>
<wgt id='1481'> +3.0486944e+11 </wgt>
<wgt id='1482'> +3.0643901e+11 </wgt>
<wgt id='1483'> +3.0556983e+11 </wgt>
<wgt id='1484'> +3.0549425e+11 </wgt>
<wgt id='1485'> +3.0574042e+11 </wgt>
<wgt id='1486'> +3.0504280e+11 </wgt>
<wgt id='1487'> +3.0582082e+11 </wgt>
<wgt id='1488'> +3.0517888e+11 </wgt>
<wgt id='1489'> +3.0514370e+11 </wgt>
<wgt id='1490'> +3.0659948e+11 </wgt>
<wgt id='1491'> +3.1075670e+11 </wgt>
<wgt id='1492'> +3.0262883e+11 </wgt>
<wgt id='1493'> +3.0172627e+11 </wgt>
<wgt id='1494'> +3.1748565e+11 </wgt>
<wgt id='1495'> +3.0457554e+11 </wgt>
<wgt id='1496'> +3.0656787e+11 </wgt>
<wgt id='1497'> +3.0576706e+11 </wgt>
<wgt id='1498'> +3.0522053e+11 </wgt>
<wgt id='1499'> +3.0782304e+11 </wgt>
<wgt id='1500'> +3.0428863e+11 </wgt>
<wgt id='1501'> +3.0577236e+11 </wgt>
<wgt id='1502'> +3.0492519e+11 </wgt>
<wgt id='1503'> +3.0034017e+11 </wgt>
<wgt id='1504'> +3.1147138e+11 </wgt>
<wgt id='1505'> +3.0601424e+11 </wgt>
<wgt id='1506'> +3.0505961e+11 </wgt>
<wgt id='1507'> +3.1012682e+11 </wgt>
<wgt id='1508'> +2.9751839e+11 </wgt>
<wgt id='1509'> +3.0646205e+11 </wgt>
<wgt id='1510'> +3.0153199e+11 </wgt>
<wgt id='1511'> +3.0678102e+11 </wgt>
<wgt id='1512'> +3.0523811e+11 </wgt>
<wgt id='1513'> +3.0527211e+11 </wgt>
<wgt id='1514'> +3.0584736e+11 </wgt>
<wgt id='1515'> +3.1031406e+11 </wgt>
<wgt id='1516'> +3.0445188e+11 </wgt>
<wgt id='1517'> +3.0487813e+11 </wgt>
<wgt id='1518'> +3.0658571e+11 </wgt>
<wgt id='1519'> +3.0332245e+11 </wgt>
<wgt id='1520'> +3.0710053e+11 </wgt>
<wgt id='1521'> +3.0400881e+11 </wgt>
<wgt id='1522'> +3.0638101e+11 </wgt>
<wgt id='1523'> +3.0675202e+11 </wgt>
<wgt id='1524'> +3.0732448e+11 </wgt>
<wgt id='1525'> +3.0601319e+11 </wgt>
<wgt id='1526'> +3.0740810e+11 </wgt>
<wgt id='1527'> +3.0553582e+11 </wgt>
<wgt id='1528'> +3.0371161e+11 </wgt>
<wgt id='1529'> +3.0722755e+11 </wgt>
<wgt id='1530'> +2.9986980e+11 </wgt>
<wgt id='1531'> +3.1185806e+11 </wgt>
<wgt id='1532'> +3.1264841e+11 </wgt>
<wgt id='1533'> +3.0580073e+11 </wgt>
<wgt id='1534'> +3.0990970e+11 </wgt>
<wgt id='1535'> +3.1558661e+11 </wgt>
<wgt id='1536'> +3.0782345e+11 </wgt>
<wgt id='1537'> +3.1492736e+11 </wgt>
<wgt id='1538'> +3.0723317e+11 </wgt>
<wgt id='1539'> +3.1689888e+11 </wgt>
<wgt id='1540'> +3.1410784e+11 </wgt>
<wgt id='1541'> +3.1410831e+11 </wgt>
<wgt id='1542'> +3.1227088e+11 </wgt>
<wgt id='1543'> +3.1423582e+11 </wgt>
<wgt id='1544'> +3.1012996e+11 </wgt>
<wgt id='1545'> +3.0987794e+11 </wgt>
<wgt id='1546'> +3.0818561e+11 </wgt>
<wgt id='1547'> +3.1409426e+11 </wgt>
<wgt id='1548'> +3.1102192e+11 </wgt>
<wgt id='1549'> +3.0824055e+11 </wgt>
<wgt id='1550'> +3.1472356e+11 </wgt>
<wgt id='1551'> +3.1248470e+11 </wgt>
<wgt id='1552'> +3.1226419e+11 </wgt>
<wgt id='1553'> +3.1896673e+11 </wgt>
<wgt id='1554'> +3.1236158e+11 </wgt>
<wgt id='1555'> +3.1294284e+11 </wgt>
<wgt id='1556'> +3.1383095e+11 </wgt>
<wgt id='1557'> +3.1167684e+11 </wgt>
<wgt id='1558'> +3.1220234e+11 </wgt>
<wgt id='1559'> +3.0926280e+11 </wgt>
<wgt id='1560'> +3.1111786e+11 </wgt>
<wgt id='1561'> +3.1045448e+11 </wgt>
<wgt id='1562'> +3.0951100e+11 </wgt>
<wgt id='1563'> +3.1222921e+11 </wgt>
<wgt id='1564'> +3.1158378e+11 </wgt>
<wgt id='1565'> +3.1560688e+11 </wgt>
<wgt id='1566'> +3.1184409e+11 </wgt>
<wgt id='1567'> +3.1156413e+11 </wgt>
<wgt id='1568'> +3.1167212e+11 </wgt>
<wgt id='1569'> +3.1111500e+11 </wgt>
<wgt id='1570'> +3.1914124e+11 </wgt>
<wgt id='1571'> +3.1191497e+11 </wgt>
<wgt id='1572'> +3.1295707e+11 </wgt>
<wgt id='1573'> +3.1721138e+11 </wgt>
<wgt id='1574'> +2.5003511e+11 </wgt>
<wgt id='1575'> +2.5009928e+11 </wgt>
<wgt id='1576'> +2.4996578e+11 </wgt>
<wgt id='1577'> +2.5005291e+11 </wgt>
<wgt id='1578'> +2.5061135e+11 </wgt>
<wgt id='1579'> +2.5079594e+11 </wgt>
<wgt id='1580'> +2.5055851e+11 </wgt>
<wgt id='1581'> +2.4964024e+11 </wgt>
<wgt id='1582'> +2.4939051e+11 </wgt>
<wgt id='1583'> +2.4955268e+11 </wgt>
<wgt id='1584'> +2.5059764e+11 </wgt>
<wgt id='1585'> +2.5032925e+11 </wgt>
<wgt id='1586'> +2.4934508e+11 </wgt>
<wgt id='1587'> +2.4944539e+11 </wgt>
<wgt id='1588'> +2.4903102e+11 </wgt>
<wgt id='1589'> +2.4967042e+11 </wgt>
<wgt id='1590'> +2.4989421e+11 </wgt>
<wgt id='1591'> +2.5011829e+11 </wgt>
<wgt id='1592'> +2.4908935e+11 </wgt>
<wgt id='1593'> +2.4884065e+11 </wgt>
<wgt id='1594'> +2.5121452e+11 </wgt>
<wgt id='1595'> +2.4737019e+11 </wgt>
<wgt id='1596'> +2.5458689e+11 </wgt>
<wgt id='1597'> +2.5187001e+11 </wgt>
<wgt id='1598'> +2.5193711e+11 </wgt>
<wgt id='1599'> +2.4689632e+11 </wgt>
<wgt id='1600'> +2.5515997e+11 </wgt>
<wgt id='1601'> +2.5219761e+11 </wgt>
<wgt id='1602'> +2.5013715e+11 </wgt>
<wgt id='1603'> +2.6570500e+11 </wgt>
<wgt id='1604'> +2.5009692e+11 </wgt>
</rwgt>
</event>
<event>
 9      1 +2.8343000e+11 1.40000000e+03 7.81738600e-03 7.88881200e-02
       21 -1    0    0  504  503 +0.0000000000e+00 +0.0000000000e+00 +3.0547989167e+02 3.0547989167e+02 0.0000000000e+00 0.0000e+00 1.0000e+00
       21 -1    0    0  503  504 -0.0000000000e+00 -0.0000000000e+00 -1.6040338874e+03 1.6040338874e+03 0.0000000000e+00 0.0000e+00 1.0000e+00
       45  2    1    2    0    0 +1.4210854715e-14 +2.8421709430e-14 -1.2985539957e+03 1.9095137791e+03 1.4000001402e+03 0.0000e+00 0.0000e+00
       25  2    3    3    0    0 +1.0210371741e+02 +2.5186208034e+02 +2.1547640693e+02 3.6865434021e+02 1.2496505109e+02 0.0000e+00 0.0000e+00
       35  2    3    3    0    0 -1.0210371741e+02 -2.5186208034e+02 -1.5140304027e+03 1.5408594389e+03 9.0000408309e+01 0.0000e+00 0.0000e+00
        5  1    5    5  501    0 +8.8080076904e-01 -3.9593085576e+01 -4.0788854366e+02 4.0982826901e+02 4.2140000000e+00 0.0000e+00 -1.0000e+00
       -5  1    5    5    0  501 -1.0298451818e+02 -2.1226899476e+02 -1.1061418590e+03 1.1310311698e+03 4.2140000000e+00 0.0000e+00 -1.0000e+00
        5  1    4    4  502    0 +3.3636160687e+01 +1.1936674562e+02 +1.7415177024e+02 2.1383734038e+02 4.2140000000e+00 0.0000e+00 -1.0000e+00
       -5  1    4    4    0  502 +6.8467556720e+01 +1.3249533472e+02 +4.1324636690e+01 1.5481699984e+02 4.2140000000e+00 0.0000e+00 -1.0000e+00
<mgrwt>
<rscale>  0 0.14000001E+04</rscale>
<asrwt>0</asrwt>
<pdfrwt beam="1">  1       21 0.46996905E-01 0.14000001E+04</pdfrwt>
<pdfrwt beam="2">  1       21 0.24677445E+00 0.14000001E+04</pdfrwt>
<totfact> 0.18780460E+02</totfact>
</mgrwt>
<rwgt>
<wgt id='1001'> +2.8343000e+11 </wgt>
<wgt id='1002'> +3.3441106e+11 </wgt>
<wgt id='1003'> +3.3437629e+11 </wgt>
<wgt id='1004'> +3.8173648e+11 </wgt>
<wgt id='1005'> +2.8343000e+11 </wgt>
<wgt id='1006'> +2.8343000e+11 </wgt>
<wgt id='1007'> +3.3441106e+11 </wgt>
<wgt id='1008'> +3.3437629e+11 </wgt>
<wgt id='1009'> +3.8173648e+11 </wgt>
<wgt id='1010'> +2.8343000e+11 </wgt>
<wgt id='1011'> +2.8343000e+11 </wgt>
<wgt id='1012'> +3.3441106e+11 </wgt>
<wgt id='1013'> +3.3437629e+11 </wgt>
<wgt id='1014'> +3.8173648e+11 </wgt>
<wgt id='1015'> +2.8343000e+11 </wgt>
<wgt id='1016'> +2.5300825e+11 </wgt>
<wgt id='1017'> +2.9544901e+11 </wgt>
<wgt id='1018'> +2.9542024e+11 </wgt>
<wgt id='1019'> +3.3437629e+11 </wgt>
<wgt id='1020'> +2.5300825e+11 </wgt>
<wgt id='1021'> +2.5300825e+11 </wgt>
<wgt id='1022'> +2.9544901e+11 </wgt>
<wgt id='1023'> +2.9542024e+11 </wgt>
<wgt id='1024'> +3.3437629e+11 </wgt>
<wgt id='1025'> +2.5300825e+11 </wgt>
<wgt id='1026'> +2.5300825e+11 </wgt>
<wgt id='1027'> +2.9544901e+11 </wgt>
<wgt id='1028'> +2.9542024e+11 </wgt>
<wgt id='1029'> +3.3437629e+11 </wgt>
<wgt id='1030'> +2.5300825e+11 </wgt>
<wgt id='1031'> +3.1989360e+11 </wgt>
<wgt id='1032'> +3.8177904e+11 </wgt>
<wgt id='1033'> +3.8173648e+11 </wgt>
<wgt id='1034'> +4.4006110e+11 </wgt>
<wgt id='1035'> +3.1989360e+11 </wgt>
<wgt id='1036'> +3.1989360e+11 </wgt>
<wgt id='1037'> +3.8177904e+11 </wgt>
<wgt id='1038'> +3.8173648e+11 </wgt>
<wgt id='1039'> +4.4006110e+11 </wgt>
<wgt id='1040'> +3.1989360e+11 </wgt>
<wgt id='1041'> +3.1989360e+11 </wgt>
<wgt id='1042'> +3.8177904e+11 </wgt>
<wgt id='1043'> +3.8173648e+11 </wgt>
<wgt id='1044'> +4.4006110e+11 </wgt>
<wgt id='1045'> +3.1989360e+11 </wgt>
<wgt id='1046'> +2.8343000e+11 </wgt>
<wgt id='1047'> +2.8343000e+11 </wgt>
<wgt id='1048'> +2.8343000e+11 </wgt>
<wgt id='1049'> +2.8309302e+11 </wgt>
<wgt id='1050'> +2.8304297e+11 </wgt>
<wgt id='1051'> +2.8357379e+11 </wgt>
<wgt id='1052'> +2.8387956e+11 </wgt>
<wgt id='1053'> +2.8146095e+11 </wgt>
<wgt id='1054'> +2.8422648e+11 </wgt>
<wgt id='1055'> +2.8198137e+11 </wgt>
<wgt id='1056'> +2.8167929e+11 </wgt>
<wgt id='1057'> +2.8220815e+11 </wgt>
<wgt id='1058'> +2.8249429e+11 </wgt>
<wgt id='1059'> +2.8585393e+11 </wgt>
<wgt id='1060'> +2.8351673e+11 </wgt>
<wgt id='1061'> +2.8417642e+11 </wgt>
<wgt id='1062'> +2.8432525e+11 </wgt>
<wgt id='1063'> +2.8474471e+11 </wgt>
<wgt id='1064'> +2.8431507e+11 </wgt>
<wgt id='1065'> +2.8518555e+11 </wgt>
<wgt id='1066'> +2.8196650e+11 </wgt>
<wgt id='1067'> +2.8237631e+11 </wgt>
<wgt id='1068'> +2.8417890e+11 </wgt>
<wgt id='1069'> +2.8243659e+11 </wgt>
<wgt id='1070'> +2.8400943e+11 </wgt>
<wgt id='1071'> +2.8310418e+11 </wgt>
<wgt id='1072'> +2.8414754e+11 </wgt>
<wgt id='1073'> +2.8191118e+11 </wgt>
<wgt id='1074'> +2.8223225e+11 </wgt>
<wgt id='1075'> +2.8280996e+11 </wgt>
<wgt id='1076'> +2.8246507e+11 </wgt>
<wgt id='1077'> +2.8183834e+11 </wgt>
<wgt id='1078'> +2.8348473e+11 </wgt>
<wgt id='1079'> +2.8244276e+11 </wgt>
<wgt id='1080'> +2.8261920e+11 </wgt>
<wgt id='1081'> +2.8318503e+11 </wgt>
<wgt id='1082'> +2.8301180e+11 </wgt>
<wgt id='1083'> +2.8440074e+11 </wgt>
<wgt id='1084'> +2.8400131e+11 </wgt>
<wgt id='1085'> +2.8230671e+11 </wgt>
<wgt id='1086'> +2.8434139e+11 </wgt>
<wgt id='1087'> +2.8366943e+11 </wgt>
<wgt id='1088'> +2.8262795e+11 </wgt>
<wgt id='1089'> +2.8253216e+11 </wgt>
<wgt id='1090'> +2.8429355e+11 </wgt>
<wgt id='1091'> +2.8370785e+11 </wgt>
<wgt id='1092'> +2.8365278e+11 </wgt>
<wgt id='1093'> +2.8337555e+11 </wgt>
<wgt id='1094'> +2.8190705e+11 </wgt>
<wgt id='1095'> +2.8380985e+11 </wgt>
<wgt id='1096'> +2.8342079e+11 </wgt>
<wgt id='1097'> +2.8271202e+11 </wgt>
<wgt id='1098'> +2.8308469e+11 </wgt>
<wgt id='1099'> +2.8328152e+11 </wgt>
<wgt id='1100'> +2.8395248e+11 </wgt>
<wgt id='1101'> +2.8337828e+11 </wgt>
<wgt id='1102'> +2.8324897e+11 </wgt>
<wgt id='1103'> +2.8233559e+11 </wgt>
<wgt id='1104'> +2.8354513e+11 </wgt>
<wgt id='1105'> +2.8354431e+11 </wgt>
<wgt id='1106'> +2.8390862e+11 </wgt>
<wgt id='1107'> +2.8381407e+11 </wgt>
<wgt id='1108'> +2.8316170e+11 </wgt>
<wgt id='1109'> +2.8335905e+11 </wgt>
<wgt id='1110'> +2.8360474e+11 </wgt>
<wgt id='1111'> +2.8393204e+11 </wgt>
<wgt id='1112'> +2.8324748e+11 </wgt>
<wgt id='1113'> +2.8381647e+11 </wgt>
<wgt id='1114'> +2.8311974e+11 </wgt>
<wgt id='1115'> +2.8271772e+11 </wgt>
<wgt id='1116'> +2.8434638e+11 </wgt>
<wgt id='1117'> +2.8332150e+11 </wgt>
<wgt id='1118'> +2.8393337e+11 </wgt>
<wgt id='1119'> +2.8286143e+11 </wgt>
<wgt id='1120'> +2.8280243e+11 </wgt>
<wgt id='1121'> +2.8346759e+11 </wgt>
<wgt id='1122'> +2.8289124e+11 </wgt>
<wgt id='1123'> +2.8336617e+11 </wgt>
<wgt id='1124'> +2.8358704e+11 </wgt>
<wgt id='1125'> +2.8362305e+11 </wgt>
<wgt id='1126'> +2.8358043e+11 </wgt>
<wgt id='1127'> +2.8333083e+11 </wgt>
<wgt id='1128'> +2.8330450e+11 </wgt>
<wgt id='1129'> +2.8316596e+11 </wgt>
<wgt id='1130'> +2.8345611e+11 </wgt>
<wgt id='1131'> +2.8414628e+11 </wgt>
<wgt id='1132'> +2.8326335e+11 </wgt>
<wgt id='1133'> +2.8363331e+11 </wgt>
<wgt id='1134'> +2.8336735e+11 </wgt>
<wgt id='1135'> +2.8347893e+11 </wgt>
<wgt id='1136'> +2.8323008e+11 </wgt>
<wgt id='1137'> +2.8313226e+11 </wgt>
<wgt id='1138'> +2.8359880e+11 </wgt>
<wgt id='1139'> +2.8362863e+11 </wgt>
<wgt id='1140'> +2.8375754e+11 </wgt>
<wgt id='1141'> +2.8307180e+11 </wgt>
<wgt id='1142'> +2.8348432e+11 </wgt>
<wgt id='1143'> +2.8368078e+11 </wgt>
<wgt id='1144'> +2.8332738e+11 </wgt>
<wgt id='1145'> +2.8363248e+11 </wgt>
<wgt id='1146'> +2.8356521e+11 </wgt>
<wgt id='1147'> +2.8350944e+11 </wgt>
<wgt id='1148'> +2.8343000e+11 </wgt>
<wgt id='1149'> +2.8343000e+11 </wgt>
<wgt id='1150'> +2.9150592e+11 </wgt>
<wgt id='1151'> +2.7685234e+11 </wgt>
<wgt id='1152'> +2.7177190e+11 </wgt>
<wgt id='1153'> +2.8553702e+11 </wgt>
<wgt id='1154'> +2.7629261e+11 </wgt>
<wgt id='1155'> +2.9920009e+11 </wgt>
<wgt id='1156'> +2.8352538e+11 </wgt>
<wgt id='1157'> +2.7866087e+11 </wgt>
<wgt id='1158'> +2.7762606e+11 </wgt>
<wgt id='1159'> +2.9079146e+11 </wgt>
<wgt id='1160'> +2.8201308e+11 </wgt>
<wgt id='1161'> +2.9695077e+11 </wgt>
<wgt id='1162'> +2.8679988e+11 </wgt>
<wgt id='1163'> +2.8821857e+11 </wgt>
<wgt id='1164'> +2.7389702e+11 </wgt>
<wgt id='1165'> +2.7429911e+11 </wgt>
<wgt id='1166'> +2.8378336e+11 </wgt>
<wgt id='1167'> +2.7956919e+11 </wgt>
<wgt id='1168'> +2.7163103e+11 </wgt>
<wgt id='1169'> +2.7603543e+11 </wgt>
<wgt id='1170'> +2.8443225e+11 </wgt>
<wgt id='1171'> +2.7435301e+11 </wgt>
<wgt id='1172'> +2.7120973e+11 </wgt>
<wgt id='1173'> +2.8782278e+11 </wgt>
<wgt id='1174'> +2.7825397e+11 </wgt>
<wgt id='1175'> +2.7863163e+11 </wgt>
<wgt id='1176'> +2.8876176e+11 </wgt>
<wgt id='1177'> +2.8278799e+11 </wgt>
<wgt id='1178'> +2.8653762e+11 </wgt>
<wgt id='1179'> +2.9188652e+11 </wgt>
<wgt id='1180'> +2.7690750e+11 </wgt>
<wgt id='1181'> +2.9116947e+11 </wgt>
<wgt id='1182'> +2.8315319e+11 </wgt>
<wgt id='1183'> +2.8968825e+11 </wgt>
<wgt id='1184'> +2.6540402e+11 </wgt>
<wgt id='1185'> +2.9158652e+11 </wgt>
<wgt id='1186'> +2.7877556e+11 </wgt>
<wgt id='1187'> +2.8887238e+11 </wgt>
<wgt id='1188'> +2.9439670e+11 </wgt>
<wgt id='1189'> +2.8445663e+11 </wgt>
<wgt id='1190'> +2.8080471e+11 </wgt>
<wgt id='1191'> +2.9367255e+11 </wgt>
<wgt id='1192'> +2.8722240e+11 </wgt>
<wgt id='1193'> +2.8765618e+11 </wgt>
<wgt id='1194'> +2.7559877e+11 </wgt>
<wgt id='1195'> +2.9081384e+11 </wgt>
<wgt id='1196'> +2.8858491e+11 </wgt>
<wgt id='1197'> +2.9081420e+11 </wgt>
<wgt id='1198'> +2.8526710e+11 </wgt>
<wgt id='1199'> +2.8384951e+11 </wgt>
<wgt id='1200'> +2.9335120e+11 </wgt>
<wgt id='1201'> +2.8558912e+11 </wgt>
<wgt id='1202'> +2.8272792e+11 </wgt>
<wgt id='1203'> +2.8805330e+11 </wgt>
<wgt id='1204'> +2.7800289e+11 </wgt>
<wgt id='1205'> +2.8837981e+11 </wgt>
<wgt id='1206'> +2.8087329e+11 </wgt>
<wgt id='1207'> +2.9361411e+11 </wgt>
<wgt id='1208'> +2.7385816e+11 </wgt>
<wgt id='1209'> +2.8553464e+11 </wgt>
<wgt id='1210'> +2.8586861e+11 </wgt>
<wgt id='1211'> +2.7873460e+11 </wgt>
<wgt id='1212'> +2.8098587e+11 </wgt>
<wgt id='1213'> +2.8331641e+11 </wgt>
<wgt id='1214'> +2.8043950e+11 </wgt>
<wgt id='1215'> +2.7859136e+11 </wgt>
<wgt id='1216'> +2.7055011e+11 </wgt>
<wgt id='1217'> +2.8455568e+11 </wgt>
<wgt id='1218'> +2.8396202e+11 </wgt>
<wgt id='1219'> +2.9177437e+11 </wgt>
<wgt id='1220'> +2.8096565e+11 </wgt>
<wgt id='1221'> +2.7497393e+11 </wgt>
<wgt id='1222'> +2.7947207e+11 </wgt>
<wgt id='1223'> +2.7480848e+11 </wgt>
<wgt id='1224'> +2.8170074e+11 </wgt>
<wgt id='1225'> +2.7702254e+11 </wgt>
<wgt id='1226'> +2.8484674e+11 </wgt>
<wgt id='1227'> +2.7837239e+11 </wgt>
<wgt id='1228'> +2.8090763e+11 </wgt>
<wgt id='1229'> +2.9813093e+11 </wgt>
<wgt id='1230'> +2.8652924e+11 </wgt>
<wgt id='1231'> +2.7429911e+11 </wgt>
<wgt id='1232'> +2.8994644e+11 </wgt>
<wgt id='1233'> +2.7806434e+11 </wgt>
<wgt id='1234'> +2.7856965e+11 </wgt>
<wgt id='1235'> +3.0319250e+11 </wgt>
<wgt id='1236'> +2.8278683e+11 </wgt>
<wgt id='1237'> +2.9346434e+11 </wgt>
<wgt id='1238'> +2.8356491e+11 </wgt>
<wgt id='1239'> +2.8901629e+11 </wgt>
<wgt id='1240'> +2.7416618e+11 </wgt>
<wgt id='1241'> +2.9117506e+11 </wgt>
<wgt id='1242'> +2.8233733e+11 </wgt>
<wgt id='1243'> +2.8169109e+11 </wgt>
<wgt id='1244'> +2.9276854e+11 </wgt>
<wgt id='1245'> +2.6946375e+11 </wgt>
<wgt id='1246'> +3.0331145e+11 </wgt>
<wgt id='1247'> +2.8146352e+11 </wgt>
<wgt id='1248'> +2.7473076e+11 </wgt>
<wgt id='1249'> +2.7569500e+11 </wgt>
<wgt id='1250'> +2.9634526e+11 </wgt>
<wgt id='1251'> +3.0721221e+11 </wgt>
<wgt id='1252'> +2.8928206e+11 </wgt>
<wgt id='1253'> +3.0400868e+11 </wgt>
<wgt id='1254'> +2.9274659e+11 </wgt>
<wgt id='1255'> +3.1220339e+11 </wgt>
<wgt id='1256'> +3.0922639e+11 </wgt>
<wgt id='1257'> +3.0202691e+11 </wgt>
<wgt id='1258'> +2.9231859e+11 </wgt>
<wgt id='1259'> +3.1828501e+11 </wgt>
<wgt id='1260'> +3.3822381e+11 </wgt>
<wgt id='1261'> +3.2284012e+11 </wgt>
<wgt id='1262'> +3.0088641e+11 </wgt>
<wgt id='1263'> +3.0528840e+11 </wgt>
<wgt id='1264'> +3.0535625e+11 </wgt>
<wgt id='1265'> +2.8979442e+11 </wgt>
<wgt id='1266'> +3.0852524e+11 </wgt>
<wgt id='1267'> +3.7503019e+11 </wgt>
<wgt id='1268'> +2.8727735e+11 </wgt>
<wgt id='1269'> +2.8634342e+11 </wgt>
<wgt id='1270'> +3.1718238e+11 </wgt>
<wgt id='1271'> +2.5947539e+11 </wgt>
<wgt id='1272'> +2.9854160e+11 </wgt>
<wgt id='1273'> +2.9310140e+11 </wgt>
<wgt id='1274'> +2.9072307e+11 </wgt>
<wgt id='1275'> +2.9119384e+11 </wgt>
<wgt id='1276'> +3.1321242e+11 </wgt>
<wgt id='1277'> +3.1022420e+11 </wgt>
<wgt id='1278'> +3.0708435e+11 </wgt>
<wgt id='1279'> +2.7865265e+11 </wgt>
<wgt id='1280'> +2.9094879e+11 </wgt>
<wgt id='1281'> +2.8666153e+11 </wgt>
<wgt id='1282'> +2.9428246e+11 </wgt>
<wgt id='1283'> +3.2518889e+11 </wgt>
<wgt id='1284'> +3.0275715e+11 </wgt>
<wgt id='1285'> +3.0682124e+11 </wgt>
<wgt id='1286'> +3.4122684e+11 </wgt>
<wgt id='1287'> +3.3285971e+11 </wgt>
<wgt id='1288'> +3.5706035e+11 </wgt>
<wgt id='1289'> +3.2425532e+11 </wgt>
<wgt id='1290'> +3.1628065e+11 </wgt>
<wgt id='1291'> +2.8167137e+11 </wgt>
<wgt id='1292'> +3.1023652e+11 </wgt>
<wgt id='1293'> +3.0596718e+11 </wgt>
<wgt id='1294'> +3.4262392e+11 </wgt>
<wgt id='1295'> +3.1641287e+11 </wgt>
<wgt id='1296'> +3.4979187e+11 </wgt>
<wgt id='1297'> +2.8576620e+11 </wgt>
<wgt id='1298'> +2.9344566e+11 </wgt>
<wgt id='1299'> +3.0954519e+11 </wgt>
<wgt id='1300'> +2.6974020e+11 </wgt>
<wgt id='1301'> +2.8059503e+11 </wgt>
<wgt id='1302'> +2.7987352e+11 </wgt>
<wgt id='1303'> +3.1147267e+11 </wgt>
<wgt id='1304'> +3.4674338e+11 </wgt>
<wgt id='1305'> +2.9791981e+11 </wgt>
<wgt id='1306'> +3.0784139e+11 </wgt>
<wgt id='1307'> +2.7677713e+11 </wgt>
<wgt id='1308'> +3.3880901e+11 </wgt>
<wgt id='1309'> +3.0904880e+11 </wgt>
<wgt id='1310'> +3.0765954e+11 </wgt>
<wgt id='1311'> +2.9219816e+11 </wgt>
<wgt id='1312'> +3.3623551e+11 </wgt>
<wgt id='1313'> +3.1466925e+11 </wgt>
<wgt id='1314'> +2.8469685e+11 </wgt>
<wgt id='1315'> +2.8843957e+11 </wgt>
<wgt id='1316'> +3.0133975e+11 </wgt>
<wgt id='1317'> +3.3130088e+11 </wgt>
<wgt id='1318'> +2.9282688e+11 </wgt>
<wgt id='1319'> +3.0295981e+11 </wgt>
<wgt id='1320'> +3.2594912e+11 </wgt>
<wgt id='1321'> +3.1301339e+11 </wgt>
<wgt id='1322'> +3.2712623e+11 </wgt>
<wgt id='1323'> +2.7821388e+11 </wgt>
<wgt id='1324'> +3.2022084e+11 </wgt>
<wgt id='1325'> +3.1734641e+11 </wgt>
<wgt id='1326'> +3.1552411e+11 </wgt>
<wgt id='1327'> +3.2778625e+11 </wgt>
<wgt id='1328'> +3.0702412e+11 </wgt>
<wgt id='1329'> +2.9690212e+11 </wgt>
<wgt id='1330'> +2.8061200e+11 </wgt>
<wgt id='1331'> +3.2924343e+11 </wgt>
<wgt id='1332'> +3.1122659e+11 </wgt>
<wgt id='1333'> +3.0416087e+11 </wgt>
<wgt id='1334'> +3.3032061e+11 </wgt>
<wgt id='1335'> +2.8758507e+11 </wgt>
<wgt id='1336'> +3.3405532e+11 </wgt>
<wgt id='1337'> +3.1252694e+11 </wgt>
<wgt id='1338'> +2.8463692e+11 </wgt>
<wgt id='1339'> +3.0743946e+11 </wgt>
<wgt id='1340'> +3.2714576e+11 </wgt>
<wgt id='1341'> +3.5321066e+11 </wgt>
<wgt id='1342'> +2.9253116e+11 </wgt>
<wgt id='1343'> +3.1110393e+11 </wgt>
<wgt id='1344'> +3.2891228e+11 </wgt>
<wgt id='1345'> +2.4668818e+11 </wgt>
<wgt id='1346'> +3.0863405e+11 </wgt>
<wgt id='1347'> +3.0214560e+11 </wgt>
<wgt id='1348'> +2.9260606e+11 </wgt>
<wgt id='1349'> +2.9253605e+11 </wgt>
<wgt id='1350'> +3.2747345e+11 </wgt>
<wgt id='1351'> +2.8861747e+11 </wgt>
<wgt id='1352'> +3.0926120e+11 </wgt>
<wgt id='1353'> +3.0832888e+11 </wgt>
<wgt id='1354'> +3.1625108e+11 </wgt>
<wgt id='1355'> +2.8355419e+11 </wgt>
<wgt id='1356'> +2.8596592e+11 </wgt>
<wgt id='1357'> +2.8543442e+11 </wgt>
<wgt id='1358'> +2.8212155e+11 </wgt>
<wgt id='1359'> +2.8119718e+11 </wgt>
<wgt id='1360'> +2.7897051e+11 </wgt>
<wgt id='1361'> +2.8173294e+11 </wgt>
<wgt id='1362'> +2.9311886e+11 </wgt>
<wgt id='1363'> +2.8391740e+11 </wgt>
<wgt id='1364'> +2.9305830e+11 </wgt>
<wgt id='1365'> +2.8132004e+11 </wgt>
<wgt id='1366'> +2.7997083e+11 </wgt>
<wgt id='1367'> +2.8022725e+11 </wgt>
<wgt id='1368'> +2.8588326e+11 </wgt>
<wgt id='1369'> +2.8711639e+11 </wgt>
<wgt id='1370'> +2.7668764e+11 </wgt>
<wgt id='1371'> +2.8179352e+11 </wgt>
<wgt id='1372'> +2.8043724e+11 </wgt>
<wgt id='1373'> +2.8859658e+11 </wgt>
<wgt id='1374'> +2.8008910e+11 </wgt>
<wgt id='1375'> +2.8582477e+11 </wgt>
<wgt id='1376'> +2.8305891e+11 </wgt>
<wgt id='1377'> +2.8293654e+11 </wgt>
<wgt id='1378'> +2.8752462e+11 </wgt>
<wgt id='1379'> +2.8138037e+11 </wgt>
<wgt id='1380'> +2.8100270e+11 </wgt>
<wgt id='1381'> +2.8711760e+11 </wgt>
<wgt id='1382'> +2.8061857e+11 </wgt>
<wgt id='1383'> +2.7983352e+11 </wgt>
<wgt id='1384'> +2.7625208e+11 </wgt>
<wgt id='1385'> +2.7728542e+11 </wgt>
<wgt id='1386'> +2.7940315e+11 </wgt>
<wgt id='1387'> +2.8243426e+11 </wgt>
<wgt id='1388'> +2.7979239e+11 </wgt>
<wgt id='1389'> +2.8024727e+11 </wgt>
<wgt id='1390'> +2.8723001e+11 </wgt>
<wgt id='1391'> +2.8593194e+11 </wgt>
<wgt id='1392'> +2.7652103e+11 </wgt>
<wgt id='1393'> +2.8690669e+11 </wgt>
<wgt id='1394'> +2.8482663e+11 </wgt>
<wgt id='1395'> +2.7707060e+11 </wgt>
<wgt id='1396'> +2.8372077e+11 </wgt>
<wgt id='1397'> +2.8316284e+11 </wgt>
<wgt id='1398'> +2.9119946e+11 </wgt>
<wgt id='1399'> +2.8178641e+11 </wgt>
<wgt id='1400'> +2.7703936e+11 </wgt>
<wgt id='1401'> +2.8354824e+11 </wgt>
<wgt id='1402'> +2.8549215e+11 </wgt>
<wgt id='1403'> +2.9611091e+11 </wgt>
<wgt id='1404'> +2.8855686e+11 </wgt>
<wgt id='1405'> +2.9357293e+11 </wgt>
<wgt id='1406'> +2.8944486e+11 </wgt>
<wgt id='1407'> +2.8703235e+11 </wgt>
<wgt id='1408'> +2.9484769e+11 </wgt>
<wgt id='1409'> +2.7660488e+11 </wgt>
<wgt id='1410'> +2.7582236e+11 </wgt>
<wgt id='1411'> +2.8316956e+11 </wgt>
<wgt id='1412'> +2.8618809e+11 </wgt>
<wgt id='1413'> +2.9048725e+11 </wgt>
<wgt id='1414'> +2.8618691e+11 </wgt>
<wgt id='1415'> +2.7875828e+11 </wgt>
<wgt id='1416'> +2.8345407e+11 </wgt>
<wgt id='1417'> +2.8135650e+11 </wgt>
<wgt id='1418'> +2.8124291e+11 </wgt>
<wgt id='1419'> +2.8594309e+11 </wgt>
<wgt id='1420'> +2.7364438e+11 </wgt>
<wgt id='1421'> +2.9166839e+11 </wgt>
<wgt id='1422'> +2.7468453e+11 </wgt>
<wgt id='1423'> +2.8596182e+11 </wgt>
<wgt id='1424'> +2.8202649e+11 </wgt>
<wgt id='1425'> +2.8300630e+11 </wgt>
<wgt id='1426'> +2.8716562e+11 </wgt>
<wgt id='1427'> +2.8044994e+11 </wgt>
<wgt id='1428'> +2.7981406e+11 </wgt>
<wgt id='1429'> +2.8489092e+11 </wgt>
<wgt id='1430'> +2.8027799e+11 </wgt>
<wgt id='1431'> +2.8332480e+11 </wgt>
<wgt id='1432'> +2.7648816e+11 </wgt>
<wgt id='1433'> +2.7567222e+11 </wgt>
<wgt id='1434'> +2.8816877e+11 </wgt>
<wgt id='1435'> +2.8409652e+11 </wgt>
<wgt id='1436'> +2.8747270e+11 </wgt>
<wgt id='1437'> +2.8098614e+11 </wgt>
<wgt id='1438'> +2.8339691e+11 </wgt>
<wgt id='1439'> +2.9281815e+11 </wgt>
<wgt id='1440'> +2.8274558e+11 </wgt>
<wgt id='1441'> +2.7872624e+11 </wgt>
<wgt id='1442'> +2.8416165e+11 </wgt>
<wgt id='1443'> +2.7795359e+11 </wgt>
<wgt id='1444'> +2.9330758e+11 </wgt>
<wgt id='1445'> +2.8031156e+11 </wgt>
<wgt id='1446'> +2.9550315e+11 </wgt>
<wgt id='1447'> +2.8594504e+11 </wgt>
<wgt id='1448'> +2.8660533e+11 </wgt>
<wgt id='1449'> +2.8609254e+11 </wgt>
<wgt id='1450'> +2.8193995e+11 </wgt>
<wgt id='1451'> +2.8136446e+11 </wgt>
<wgt id='1452'> +2.8633324e+11 </wgt>
<wgt id='1453'> +2.8736035e+11 </wgt>
<wgt id='1454'> +2.7374858e+11 </wgt>
<wgt id='1455'> +2.8185964e+11 </wgt>
<wgt id='1456'> +2.8110300e+11 </wgt>
<wgt id='1457'> +2.8429492e+11 </wgt>
<wgt id='1458'> +2.9256252e+11 </wgt>
<wgt id='1459'> +3.1550278e+11 </wgt>
<wgt id='1460'> +3.0985620e+11 </wgt>
<wgt id='1461'> +3.7584235e+11 </wgt>
<wgt id='1462'> +3.0561592e+11 </wgt>
<wgt id='1463'> +3.0582831e+11 </wgt>
<wgt id='1464'> +3.0534353e+11 </wgt>
<wgt id='1465'> +3.0568723e+11 </wgt>
<wgt id='1466'> +3.0555080e+11 </wgt>
<wgt id='1467'> +3.0571130e+11 </wgt>
<wgt id='1468'> +3.0545942e+11 </wgt>
<wgt id='1469'> +3.0518384e+11 </wgt>
<wgt id='1470'> +3.0596681e+11 </wgt>
<wgt id='1471'> +3.0605882e+11 </wgt>
<wgt id='1472'> +3.0515970e+11 </wgt>
<wgt id='1473'> +3.0685270e+11 </wgt>
<wgt id='1474'> +3.0442795e+11 </wgt>
<wgt id='1475'> +3.0677965e+11 </wgt>
<wgt id='1476'> +3.0479112e+11 </wgt>
<wgt id='1477'> +3.0507106e+11 </wgt>
<wgt id='1478'> +3.0688910e+11 </wgt>
<wgt id='1479'> +3.0538000e+11 </wgt>
<wgt id='1480'> +3.0578766e+11 </wgt>
<wgt id='1481'> +3.0494775e+11 </wgt>
<wgt id='1482'> +3.0652156e+11 </wgt>
<wgt id='1483'> +3.0564956e+11 </wgt>
<wgt id='1484'> +3.0557492e+11 </wgt>
<wgt id='1485'> +3.0582036e+11 </wgt>
<wgt id='1486'> +3.0512328e+11 </wgt>
<wgt id='1487'> +3.0590075e+11 </wgt>
<wgt id='1488'> +3.0525914e+11 </wgt>
<wgt id='1489'> +3.0522355e+11 </wgt>
<wgt id='1490'> +3.0668026e+11 </wgt>
<wgt id='1491'> +3.1084014e+11 </wgt>
<wgt id='1492'> +3.0270708e+11 </wgt>
<wgt id='1493'> +3.0180417e+11 </wgt>
<wgt id='1494'> +3.1757261e+11 </wgt>
<wgt id='1495'> +3.0465355e+11 </wgt>
<wgt id='1496'> +3.0665022e+11 </wgt>
<wgt id='1497'> +3.0584757e+11 </wgt>
<wgt id='1498'> +3.0530007e+11 </wgt>
<wgt id='1499'> +3.0790646e+11 </wgt>
<wgt id='1500'> +3.0436694e+11 </wgt>
<wgt id='1501'> +3.0585044e+11 </wgt>
<wgt id='1502'> +3.0501084e+11 </wgt>
<wgt id='1503'> +3.0040334e+11 </wgt>
<wgt id='1504'> +3.1157275e+11 </wgt>
<wgt id='1505'> +3.0609082e+11 </wgt>
<wgt id='1506'> +3.0514318e+11 </wgt>
<wgt id='1507'> +3.1022912e+11 </wgt>
<wgt id='1508'> +2.9755018e+11 </wgt>
<wgt id='1509'> +3.0654458e+11 </wgt>
<wgt id='1510'> +3.0160142e+11 </wgt>
<wgt id='1511'> +3.0686083e+11 </wgt>
<wgt id='1512'> +3.0532014e+11 </wgt>
<wgt id='1513'> +3.0535052e+11 </wgt>
<wgt id='1514'> +3.0592935e+11 </wgt>
<wgt id='1515'> +3.1041318e+11 </wgt>
<wgt id='1516'> +3.0451957e+11 </wgt>
<wgt id='1517'> +3.0495578e+11 </wgt>
<wgt id='1518'> +3.0667194e+11 </wgt>
<wgt id='1519'> +3.0339881e+11 </wgt>
<wgt id='1520'> +3.0718322e+11 </wgt>
<wgt id='1521'> +3.0408384e+11 </wgt>
<wgt id='1522'> +3.0646369e+11 </wgt>
<wgt id='1523'> +3.0683360e+11 </wgt>
<wgt id='1524'> +3.0740609e+11 </wgt>
<wgt id='1525'> +3.0608949e+11 </wgt>
<wgt id='1526'> +3.0749455e+11 </wgt>
<wgt id='1527'> +3.0561592e+11 </wgt>
<wgt id='1528'> +3.0377867e+11 </wgt>
<wgt id='1529'> +3.0732330e+11 </wgt>
<wgt id='1530'> +2.9991624e+11 </wgt>
<wgt id='1531'> +3.1199030e+11 </wgt>
<wgt id='1532'> +3.1280568e+11 </wgt>
<wgt id='1533'> +3.0592582e+11 </wgt>
<wgt id='1534'> +3.1003571e+11 </wgt>
<wgt id='1535'> +3.1572645e+11 </wgt>
<wgt id='1536'> +3.0793948e+11 </wgt>
<wgt id='1537'> +3.1508570e+11 </wgt>
<wgt id='1538'> +3.0735592e+11 </wgt>
<wgt id='1539'> +3.1703227e+11 </wgt>
<wgt id='1540'> +3.1425971e+11 </wgt>
<wgt id='1541'> +3.1425047e+11 </wgt>
<wgt id='1542'> +3.1240919e+11 </wgt>
<wgt id='1543'> +3.1437868e+11 </wgt>
<wgt id='1544'> +3.1025934e+11 </wgt>
<wgt id='1545'> +3.1001143e+11 </wgt>
<wgt id='1546'> +3.0831978e+11 </wgt>
<wgt id='1547'> +3.1422552e+11 </wgt>
<wgt id='1548'> +3.1116090e+11 </wgt>
<wgt id='1549'> +3.0837197e+11 </wgt>
<wgt id='1550'> +3.1486678e+11 </wgt>
<wgt id='1551'> +3.1261754e+11 </wgt>
<wgt id='1552'> +3.1240141e+11 </wgt>
<wgt id='1553'> +3.1913939e+11 </wgt>
<wgt id='1554'> +3.1249862e+11 </wgt>
<wgt id='1555'> +3.1307511e+11 </wgt>
<wgt id='1556'> +3.1396351e+11 </wgt>
<wgt id='1557'> +3.1181176e+11 </wgt>
<wgt id='1558'> +3.1233306e+11 </wgt>
<wgt id='1559'> +3.0939849e+11 </wgt>
<wgt id='1560'> +3.1125756e+11 </wgt>
<wgt id='1561'> +3.1059579e+11 </wgt>
<wgt id='1562'> +3.0963187e+11 </wgt>
<wgt id='1563'> +3.1236309e+11 </wgt>
<wgt id='1564'> +3.1171529e+11 </wgt>
<wgt id='1565'> +3.1575357e+11 </wgt>
<wgt id='1566'> +3.1197615e+11 </wgt>
<wgt id='1567'> +3.1167054e+11 </wgt>
<wgt id='1568'> +3.1180382e+11 </wgt>
<wgt id='1569'> +3.1124637e+11 </wgt>
<wgt id='1570'> +3.1928055e+11 </wgt>
<wgt id='1571'> +3.1204504e+11 </wgt>
<wgt id='1572'> +3.1307636e+11 </wgt>
<wgt id='1573'> +3.1736225e+11 </wgt>
<wgt id='1574'> +2.4992204e+11 </wgt>
<wgt id='1575'> +2.4998615e+11 </wgt>
<wgt id='1576'> +2.4985270e+11 </wgt>
<wgt id='1577'> +2.4993984e+11 </wgt>
<wgt id='1578'> +2.5049802e+11 </wgt>
<wgt id='1579'> +2.5068228e+11 </wgt>
<wgt id='1580'> +2.5044482e+11 </wgt>
<wgt id='1581'> +2.4952849e+11 </wgt>
<wgt id='1582'> +2.4927908e+11 </wgt>
<wgt id='1583'> +2.4943935e+11 </wgt>
<wgt id='1584'> +2.5048448e+11 </wgt>
<wgt id='1585'> +2.5021690e+11 </wgt>
<wgt id='1586'> +2.4923382e+11 </wgt>
<wgt id='1587'> +2.4933336e+11 </wgt>
<wgt id='1588'> +2.4891944e+11 </wgt>
<wgt id='1589'> +2.4955671e+11 </wgt>
<wgt id='1590'> +2.4978126e+11 </wgt>
<wgt id='1591'> +2.5000522e+11 </wgt>
<wgt id='1592'> +2.4897690e+11 </wgt>
<wgt id='1593'> +2.4872620e+11 </wgt>
<wgt id='1594'> +2.5110312e+11 </wgt>
<wgt id='1595'> +2.4725555e+11 </wgt>
<wgt id='1596'> +2.5447769e+11 </wgt>
<wgt id='1597'> +2.5175684e+11 </wgt>
<wgt id='1598'> +2.5182308e+11 </wgt>
<wgt id='1599'> +2.4678188e+11 </wgt>
<wgt id='1600'> +2.5504933e+11 </wgt>
<wgt id='1601'> +2.5208435e+11 </wgt>
<wgt id='1602'> +2.5002501e+11 </wgt>
<wgt id='1603'> +2.6561520e+11 </wgt>
<wgt id='1604'> +2.4998151e+11 </wgt>
</rwgt>
</event>
<event>
 9      1 +2.8343000e+11 1.40000000e+03 7.81738600e-03 7.88881100e-02
       21 -1    0    0  504  503 +0.0000000000e+00 +0.0000000000e+00 +6.7026324105e+02 6.7026324105e+02 0.0000000000e+00 0.0000e+00 -1.0000e+00
       21 -1    0    0  503  504 -0.0000000000e+00 -0.0000000000e+00 -7.3105650458e+02 7.3105650458e+02 0.0000000000e+00 0.0000e+00 -1.0000e+00
       45  2    1    2    0    0 +5.6843418861e-14 -2.8421709430e-14 -6.0793263535e+01 1.4013197456e+03 1.4000004316e+03 0.0000e+00 0.0000e+00
       25  2    3    3    0    0 -3.1860325436e+02 +2.1399916481e+02 -6.0624466472e+02 7.2832576141e+02 1.2498857947e+02 0.0000e+00 0.0000e+00
       35  2    3    3    0    0 +3.1860325436e+02 -2.1399916481e+02 +5.4545140119e+02 6.7299398422e+02 8.9999975079e+01 0.0000e+00 0.0000e+00
        5  1    5    5  501    0 +1.9983836077e+02 -1.3829516305e+02 +2.6794141744e+02 3.6176136269e+02 4.2140000000e+00 0.0000e+00 1.0000e+00
       -5  1    5    5    0  501 +1.1876489360e+02 -7.5704001755e+01 +2.7750998374e+02 3.1123262153e+02 4.2140000000e+00 0.0000e+00 1.0000e+00
        5  1    4    4  502    0 -3.5556844371e+01 -1.5312375516e+01 -6.8558133133e+01 7.8846264593e+01 4.2140000000e+00 0.0000e+00 -1.0000e+00
       -5  1    4    4    0  502 -2.8304640999e+02 +2.2931154032e+02 -5.3768653159e+02 6.4947949682e+02 4.2140000000e+00 0.0000e+00 -1.0000e+00
<mgrwt>
<rscale>  0 0.14000004E+04</rscale>
<asrwt>0</asrwt>
<pdfrwt beam="1">  1       21 0.10311742E+00 0.14000004E+04</pdfrwt>
<pdfrwt beam="2">  1       21 0.11247023E+00 0.14000004E+04</pdfrwt>
<totfact> 0.35824777E+02</totfact>
</mgrwt>
<rwgt>
<wgt id='1001'> +2.8343000e+11 </wgt>
<wgt id='1002'> +3.1144935e+11 </wgt>
<wgt id='1003'> +3.1143203e+11 </wgt>
<wgt id='1004'> +3.5127628e+11 </wgt>
<wgt id='1005'> +2.8343000e+11 </wgt>
<wgt id='1006'> +2.8343000e+11 </wgt>
<wgt id='1007'> +3.1144935e+11 </wgt>
<wgt id='1008'> +3.1143203e+11 </wgt>
<wgt id='1009'> +3.5127628e+11 </wgt>
<wgt id='1010'> +2.8343000e+11 </wgt>
<wgt id='1011'> +2.8343000e+11 </wgt>
<wgt id='1012'> +3.1144935e+11 </wgt>
<wgt id='1013'> +3.1143203e+11 </wgt>
<wgt id='1014'> +3.5127628e+11 </wgt>
<wgt id='1015'> +2.8343000e+11 </wgt>
<wgt id='1016'> +2.5469664e+11 </wgt>
<wgt id='1017'> +2.7823650e+11 </wgt>
<wgt id='1018'> +2.7822203e+11 </wgt>
<wgt id='1019'> +3.1143203e+11 </wgt>
<wgt id='1020'> +2.5469664e+11 </wgt>
<wgt id='1021'> +2.5469664e+11 </wgt>
<wgt id='1022'> +2.7823650e+11 </wgt>
<wgt id='1023'> +2.7822203e+11 </wgt>
<wgt id='1024'> +3.1143203e+11 </wgt>
<wgt id='1025'> +2.5469664e+11 </wgt>
<wgt id='1026'> +2.5469664e+11 </wgt>
<wgt id='1027'> +2.7823650e+11 </wgt>
<wgt id='1028'> +2.7822203e+11 </wgt>
<wgt id='1029'> +3.1143203e+11 </wgt>
<wgt id='1030'> +2.5469664e+11 </wgt>
<wgt id='1031'> +3.1767024e+11 </wgt>
<wgt id='1032'> +3.5129715e+11 </wgt>
<wgt id='1033'> +3.5127628e+11 </wgt>
<wgt id='1034'> +3.9972669e+11 </wgt>
<wgt id='1035'> +3.1767024e+11 </wgt>
<wgt id='1036'> +3.1767024e+11 </wgt>
<wgt id='1037'> +3.5129715e+11 </wgt>
<wgt id='1038'> +3.5127628e+11 </wgt>
<wgt id='1039'> +3.9972669e+11 </wgt>
<wgt id='1040'> +3.1767024e+11 </wgt>
<wgt id='1041'> +3.1767024e+11 </wgt>
<wgt id='1042'> +3.5129715e+11 </wgt>
<wgt id='1043'> +3.5127628e+11 </wgt>
<wgt id='1044'> +3.9972669e+11 </wgt>
<wgt id='1045'> +3.1767024e+11 </wgt>
<wgt id='1046'> +2.8343000e+11 </wgt>
<wgt id='1047'> +2.8343000e+11 </wgt>
<wgt id='1048'> +2.8343000e+11 </wgt>
<wgt id='1049'> +2.8226101e+11 </wgt>
<wgt id='1050'> +2.8304577e+11 </wgt>
<wgt id='1051'> +2.8376441e+11 </wgt>
<wgt id='1052'> +2.8419793e+11 </wgt>
<wgt id='1053'> +2.8189426e+11 </wgt>
<wgt id='1054'> +2.8388448e+11 </wgt>
<wgt id='1055'> +2.8224821e+11 </wgt>
<wgt id='1056'> +2.8180042e+11 </wgt>
<wgt id='1057'> +2.8422236e+11 </wgt>
<wgt id='1058'> +2.8305752e+11 </wgt>
<wgt id='1059'> +2.8541362e+11 </wgt>
<wgt id='1060'> +2.8366144e+11 </wgt>
<wgt id='1061'> +2.8421331e+11 </wgt>
<wgt id='1062'> +2.8400679e+11 </wgt>
<wgt id='1063'> +2.8364309e+11 </wgt>
<wgt id='1064'> +2.8470433e+11 </wgt>
<wgt id='1065'> +2.8487783e+11 </wgt>
<wgt id='1066'> +2.8201086e+11 </wgt>
<wgt id='1067'> +2.7966428e+11 </wgt>
<wgt id='1068'> +2.8382275e+11 </wgt>
<wgt id='1069'> +2.8279551e+11 </wgt>
<wgt id='1070'> +2.8341048e+11 </wgt>
<wgt id='1071'> +2.8493768e+11 </wgt>
<wgt id='1072'> +2.8111276e+11 </wgt>
<wgt id='1073'> +2.8412223e+11 </wgt>
<wgt id='1074'> +2.8302863e+11 </wgt>
<wgt id='1075'> +2.8440474e+11 </wgt>
<wgt id='1076'> +2.8327786e+11 </wgt>
<wgt id='1077'> +2.8298552e+11 </wgt>
<wgt id='1078'> +2.8409777e+11 </wgt>
<wgt id='1079'> +2.8177229e+11 </wgt>
<wgt id='1080'> +2.8276468e+11 </wgt>
<wgt id='1081'> +2.8302802e+11 </wgt>
<wgt id='1082'> +2.8203969e+11 </wgt>
<wgt id='1083'> +2.8399959e+11 </wgt>
<wgt id='1084'> +2.8407033e+11 </wgt>
<wgt id='1085'> +2.8285837e+11 </wgt>
<wgt id='1086'> +2.8279099e+11 </wgt>
<wgt id='1087'> +2.8307981e+11 </wgt>
<wgt id='1088'> +2.8293600e+11 </wgt>
<wgt id='1089'> +2.8279686e+11 </wgt>
<wgt id='1090'> +2.8413272e+11 </wgt>
<wgt id='1091'> +2.8348220e+11 </wgt>
<wgt id='1092'> +2.8370896e+11 </wgt>
<wgt id='1093'> +2.8332906e+11 </wgt>
<wgt id='1094'> +2.8291739e+11 </wgt>
<wgt id='1095'> +2.8354502e+11 </wgt>
<wgt id='1096'> +2.8339219e+11 </wgt>
<wgt id='1097'> +2.8303913e+11 </wgt>
<wgt id='1098'> +2.8307686e+11 </wgt>
<wgt id='1099'> +2.8323789e+11 </wgt>
<wgt id='1100'> +2.8402206e+11 </wgt>
<wgt id='1101'> +2.8341407e+11 </wgt>
<wgt id='1102'> +2.8328871e+11 </wgt>
<wgt id='1103'> +2.8310081e+11 </wgt>
<wgt id='1104'> +2.8310272e+11 </wgt>
<wgt id='1105'> +2.8353487e+11 </wgt>
<wgt id='1106'> +2.8377056e+11 </wgt>
<wgt id='1107'> +2.8334528e+11 </wgt>
<wgt id='1108'> +2.8333525e+11 </wgt>
<wgt id='1109'> +2.8324393e+11 </wgt>
<wgt id='1110'> +2.8376111e+11 </wgt>
<wgt id='1111'> +2.8356129e+11 </wgt>
<wgt id='1112'> +2.8339583e+11 </wgt>
<wgt id='1113'> +2.8373659e+11 </wgt>
<wgt id='1114'> +2.8311024e+11 </wgt>
<wgt id='1115'> +2.8326178e+11 </wgt>
<wgt id='1116'> +2.8373021e+11 </wgt>
<wgt id='1117'> +2.8337540e+11 </wgt>
<wgt id='1118'> +2.8353491e+11 </wgt>
<wgt id='1119'> +2.8325563e+11 </wgt>
<wgt id='1120'> +2.8328918e+11 </wgt>
<wgt id='1121'> +2.8350257e+11 </wgt>
<wgt id='1122'> +2.8322663e+11 </wgt>
<wgt id='1123'> +2.8337183e+11 </wgt>
<wgt id='1124'> +2.8333055e+11 </wgt>
<wgt id='1125'> +2.8359097e+11 </wgt>
<wgt id='1126'> +2.8353537e+11 </wgt>
<wgt id='1127'> +2.8332188e+11 </wgt>
<wgt id='1128'> +2.8347546e+11 </wgt>
<wgt id='1129'> +2.8339462e+11 </wgt>
<wgt id='1130'> +2.8346778e+11 </wgt>
<wgt id='1131'> +2.8369219e+11 </wgt>
<wgt id='1132'> +2.8335360e+11 </wgt>
<wgt id='1133'> +2.8350607e+11 </wgt>
<wgt id='1134'> +2.8341157e+11 </wgt>
<wgt id='1135'> +2.8346739e+11 </wgt>
<wgt id='1136'> +2.8340249e+11 </wgt>
<wgt id='1137'> +2.8329057e+11 </wgt>
<wgt id='1138'> +2.8354175e+11 </wgt>
<wgt id='1139'> +2.8346798e+11 </wgt>
<wgt id='1140'> +2.8364344e+11 </wgt>
<wgt id='1141'> +2.8330775e+11 </wgt>
<wgt id='1142'> +2.8349856e+11 </wgt>
<wgt id='1143'> +2.8359165e+11 </wgt>
<wgt id='1144'> +2.8334605e+11 </wgt>
<wgt id='1145'> +2.8355239e+11 </wgt>
<wgt id='1146'> +2.8340902e+11 </wgt>
<wgt id='1147'> +2.8347227e+11 </wgt>
<wgt id='1148'> +2.8343000e+11 </wgt>
<wgt id='1149'> +2.8343000e+11 </wgt>
<wgt id='1150'> +2.9089243e+11 </wgt>
<wgt id='1151'> +2.8131216e+11 </wgt>
<wgt id='1152'> +2.8571890e+11 </wgt>
<wgt id='1153'> +2.8777344e+11 </wgt>
<wgt id='1154'> +2.8755909e+11 </wgt>
<wgt id='1155'> +2.8830831e+11 </wgt>
<wgt id='1156'> +2.7649967e+11 </wgt>
<wgt id='1157'> +2.7675646e+11 </wgt>
<wgt id='1158'> +2.7767171e+11 </wgt>
<wgt id='1159'> +2.9609192e+11 </wgt>
<wgt id='1160'> +2.8149503e+11 </wgt>
<wgt id='1161'> +2.8556376e+11 </wgt>
<wgt id='1162'> +2.7596445e+11 </wgt>
<wgt id='1163'> +2.8689871e+11 </wgt>
<wgt id='1164'> +2.6755343e+11 </wgt>
<wgt id='1165'> +2.7944160e+11 </wgt>
<wgt id='1166'> +2.8510524e+11 </wgt>
<wgt id='1167'> +2.8001738e+11 </wgt>
<wgt id='1168'> +2.7661117e+11 </wgt>
<wgt id='1169'> +2.7599703e+11 </wgt>
<wgt id='1170'> +2.7573281e+11 </wgt>
<wgt id='1171'> +2.7351487e+11 </wgt>
<wgt id='1172'> +2.7763475e+11 </wgt>
<wgt id='1173'> +2.8810268e+11 </wgt>
<wgt id='1174'> +2.7977122e+11 </wgt>
<wgt id='1175'> +2.7514154e+11 </wgt>
<wgt id='1176'> +2.8639453e+11 </wgt>
<wgt id='1177'> +2.7933299e+11 </wgt>
<wgt id='1178'> +2.8317651e+11 </wgt>
<wgt id='1179'> +2.8023873e+11 </wgt>
<wgt id='1180'> +2.8341045e+11 </wgt>
<wgt id='1181'> +2.7591334e+11 </wgt>
<wgt id='1182'> +2.8172349e+11 </wgt>
<wgt id='1183'> +2.9592163e+11 </wgt>
<wgt id='1184'> +2.7571552e+11 </wgt>
<wgt id='1185'> +2.8019117e+11 </wgt>
<wgt id='1186'> +2.7148936e+11 </wgt>
<wgt id='1187'> +2.8581445e+11 </wgt>
<wgt id='1188'> +2.7652317e+11 </wgt>
<wgt id='1189'> +2.8573566e+11 </wgt>
<wgt id='1190'> +2.8433797e+11 </wgt>
<wgt id='1191'> +2.9536031e+11 </wgt>
<wgt id='1192'> +2.9194998e+11 </wgt>
<wgt id='1193'> +2.9550767e+11 </wgt>
<wgt id='1194'> +2.8475055e+11 </wgt>
<wgt id='1195'> +2.8379914e+11 </wgt>
<wgt id='1196'> +2.9240286e+11 </wgt>
<wgt id='1197'> +2.9418315e+11 </wgt>
<wgt id='1198'> +2.7505290e+11 </wgt>
<wgt id='1199'> +2.8169678e+11 </wgt>
<wgt id='1200'> +2.8217141e+11 </wgt>
<wgt id='1201'> +2.7933998e+11 </wgt>
<wgt id='1202'> +2.8873138e+11 </wgt>
<wgt id='1203'> +2.7754031e+11 </wgt>
<wgt id='1204'> +2.8850660e+11 </wgt>
<wgt id='1205'> +2.8519823e+11 </wgt>
<wgt id='1206'> +2.7640393e+11 </wgt>
<wgt id='1207'> +2.9323057e+11 </wgt>
<wgt id='1208'> +2.7295139e+11 </wgt>
<wgt id='1209'> +2.7852213e+11 </wgt>
<wgt id='1210'> +2.8023780e+11 </wgt>
<wgt id='1211'> +2.8572201e+11 </wgt>
<wgt id='1212'> +2.8371993e+11 </wgt>
<wgt id='1213'> +2.9357236e+11 </wgt>
<wgt id='1214'> +2.7570538e+11 </wgt>
<wgt id='1215'> +2.9220802e+11 </wgt>
<wgt id='1216'> +2.8610614e+11 </wgt>
<wgt id='1217'> +2.7590959e+11 </wgt>
<wgt id='1218'> +2.8480992e+11 </wgt>
<wgt id='1219'> +2.9446119e+11 </wgt>
<wgt id='1220'> +2.7701759e+11 </wgt>
<wgt id='1221'> +2.7499579e+11 </wgt>
<wgt id='1222'> +2.8048259e+11 </wgt>
<wgt id='1223'> +2.7259565e+11 </wgt>
<wgt id='1224'> +2.8354249e+11 </wgt>
<wgt id='1225'> +2.8807767e+11 </wgt>
<wgt id='1226'> +2.9081224e+11 </wgt>
<wgt id='1227'> +2.7280812e+11 </wgt>
<wgt id='1228'> +2.8136723e+11 </wgt>
<wgt id='1229'> +3.0287526e+11 </wgt>
<wgt id='1230'> +2.9430906e+11 </wgt>
<wgt id='1231'> +2.7944160e+11 </wgt>
<wgt id='1232'> +2.8922399e+11 </wgt>
<wgt id='1233'> +2.7823984e+11 </wgt>
<wgt id='1234'> +2.7634797e+11 </wgt>
<wgt id='1235'> +3.0318142e+11 </wgt>
<wgt id='1236'> +2.7659786e+11 </wgt>
<wgt id='1237'> +2.8991091e+11 </wgt>
<wgt id='1238'> +2.8988119e+11 </wgt>
<wgt id='1239'> +2.9229067e+11 </wgt>
<wgt id='1240'> +2.8573406e+11 </wgt>
<wgt id='1241'> +2.8195463e+11 </wgt>
<wgt id='1242'> +2.8080960e+11 </wgt>
<wgt id='1243'> +2.8907623e+11 </wgt>
<wgt id='1244'> +2.8118038e+11 </wgt>
<wgt id='1245'> +2.8189557e+11 </wgt>
<wgt id='1246'> +3.0733793e+11 </wgt>
<wgt id='1247'> +2.8382107e+11 </wgt>
<wgt id='1248'> +2.7546398e+11 </wgt>
<wgt id='1249'> +2.7774075e+11 </wgt>
<wgt id='1250'> +2.9212122e+11 </wgt>
<wgt id='1251'> +2.9873346e+11 </wgt>
<wgt id='1252'> +2.8722906e+11 </wgt>
<wgt id='1253'> +2.8523582e+11 </wgt>
<wgt id='1254'> +2.8871880e+11 </wgt>
<wgt id='1255'> +2.9800539e+11 </wgt>
<wgt id='1256'> +2.9515318e+11 </wgt>
<wgt id='1257'> +2.8524991e+11 </wgt>
<wgt id='1258'> +3.0048602e+11 </wgt>
<wgt id='1259'> +2.9468048e+11 </wgt>
<wgt id='1260'> +3.2556254e+11 </wgt>
<wgt id='1261'> +3.1384326e+11 </wgt>
<wgt id='1262'> +2.8963518e+11 </wgt>
<wgt id='1263'> +2.9673611e+11 </wgt>
<wgt id='1264'> +2.9852556e+11 </wgt>
<wgt id='1265'> +2.9885850e+11 </wgt>
<wgt id='1266'> +2.9428040e+11 </wgt>
<wgt id='1267'> +3.1495791e+11 </wgt>
<wgt id='1268'> +2.9436915e+11 </wgt>
<wgt id='1269'> +2.8727407e+11 </wgt>
<wgt id='1270'> +2.9116936e+11 </wgt>
<wgt id='1271'> +2.7972660e+11 </wgt>
<wgt id='1272'> +2.9341766e+11 </wgt>
<wgt id='1273'> +2.9200567e+11 </wgt>
<wgt id='1274'> +2.8776103e+11 </wgt>
<wgt id='1275'> +2.9866560e+11 </wgt>
<wgt id='1276'> +2.9543168e+11 </wgt>
<wgt id='1277'> +2.9080795e+11 </wgt>
<wgt id='1278'> +2.8623983e+11 </wgt>
<wgt id='1279'> +2.8129704e+11 </wgt>
<wgt id='1280'> +2.9414736e+11 </wgt>
<wgt id='1281'> +2.8592415e+11 </wgt>
<wgt id='1282'> +2.9670598e+11 </wgt>
<wgt id='1283'> +2.9607188e+11 </wgt>
<wgt id='1284'> +3.1497206e+11 </wgt>
<wgt id='1285'> +3.0826980e+11 </wgt>
<wgt id='1286'> +3.2874094e+11 </wgt>
<wgt id='1287'> +3.0332932e+11 </wgt>
<wgt id='1288'> +3.2354008e+11 </wgt>
<wgt id='1289'> +3.1304310e+11 </wgt>
<wgt id='1290'> +3.1145584e+11 </wgt>
<wgt id='1291'> +2.7797382e+11 </wgt>
<wgt id='1292'> +2.9737491e+11 </wgt>
<wgt id='1293'> +3.0014384e+11 </wgt>
<wgt id='1294'> +3.1434107e+11 </wgt>
<wgt id='1295'> +2.9788582e+11 </wgt>
<wgt id='1296'> +3.1522506e+11 </wgt>
<wgt id='1297'> +2.9565271e+11 </wgt>
<wgt id='1298'> +2.8784047e+11 </wgt>
<wgt id='1299'> +2.9853464e+11 </wgt>
<wgt id='1300'> +2.8804610e+11 </wgt>
<wgt id='1301'> +2.8109450e+11 </wgt>
<wgt id='1302'> +2.7542238e+11 </wgt>
<wgt id='1303'> +2.9838357e+11 </wgt>
<wgt id='1304'> +3.0575552e+11 </wgt>
<wgt id='1305'> +2.9837757e+11 </wgt>
<wgt id='1306'> +3.0523565e+11 </wgt>
<wgt id='1307'> +3.0405092e+11 </wgt>
<wgt id='1308'> +3.2529056e+11 </wgt>
<wgt id='1309'> +2.9578005e+11 </wgt>
<wgt id='1310'> +3.0224312e+11 </wgt>
<wgt id='1311'> +3.0822911e+11 </wgt>
<wgt id='1312'> +2.9902710e+11 </wgt>
<wgt id='1313'> +2.9681459e+11 </wgt>
<wgt id='1314'> +3.0442041e+11 </wgt>
<wgt id='1315'> +2.8488917e+11 </wgt>
<wgt id='1316'> +2.9853355e+11 </wgt>
<wgt id='1317'> +3.0125342e+11 </wgt>
<wgt id='1318'> +2.8618346e+11 </wgt>
<wgt id='1319'> +3.0806972e+11 </wgt>
<wgt id='1320'> +3.0894414e+11 </wgt>
<wgt id='1321'> +2.9373872e+11 </wgt>
<wgt id='1322'> +2.9784452e+11 </wgt>
<wgt id='1323'> +2.9882603e+11 </wgt>
<wgt id='1324'> +3.0125387e+11 </wgt>
<wgt id='1325'> +3.1095370e+11 </wgt>
<wgt id='1326'> +3.0273922e+11 </wgt>
<wgt id='1327'> +2.9318842e+11 </wgt>
<wgt id='1328'> +3.0288151e+11 </wgt>
<wgt id='1329'> +2.9779037e+11 </wgt>
<wgt id='1330'> +2.9088331e+11 </wgt>
<wgt id='1331'> +3.1921482e+11 </wgt>
<wgt id='1332'> +2.8592229e+11 </wgt>
<wgt id='1333'> +3.0053830e+11 </wgt>
<wgt id='1334'> +3.1391049e+11 </wgt>
<wgt id='1335'> +2.9253740e+11 </wgt>
<wgt id='1336'> +3.0209349e+11 </wgt>
<wgt id='1337'> +3.0852145e+11 </wgt>
<wgt id='1338'> +2.8991995e+11 </wgt>
<wgt id='1339'> +3.2046860e+11 </wgt>
<wgt id='1340'> +3.0163104e+11 </wgt>
<wgt id='1341'> +3.0463346e+11 </wgt>
<wgt id='1342'> +3.1592134e+11 </wgt>
<wgt id='1343'> +3.1037043e+11 </wgt>
<wgt id='1344'> +3.0313548e+11 </wgt>
<wgt id='1345'> +2.8041263e+11 </wgt>
<wgt id='1346'> +2.9946619e+11 </wgt>
<wgt id='1347'> +2.8676767e+11 </wgt>
<wgt id='1348'> +2.8802820e+11 </wgt>
<wgt id='1349'> +2.9001114e+11 </wgt>
<wgt id='1350'> +3.0037755e+11 </wgt>
<wgt id='1351'> +2.9694772e+11 </wgt>
<wgt id='1352'> +3.0045980e+11 </wgt>
<wgt id='1353'> +2.9714554e+11 </wgt>
<wgt id='1354'> +3.0692717e+11 </wgt>
<wgt id='1355'> +2.7547057e+11 </wgt>
<wgt id='1356'> +2.7822746e+11 </wgt>
<wgt id='1357'> +2.7638499e+11 </wgt>
<wgt id='1358'> +2.7286437e+11 </wgt>
<wgt id='1359'> +2.7625217e+11 </wgt>
<wgt id='1360'> +2.6863525e+11 </wgt>
<wgt id='1361'> +2.7554135e+11 </wgt>
<wgt id='1362'> +2.7717332e+11 </wgt>
<wgt id='1363'> +2.6926176e+11 </wgt>
<wgt id='1364'> +2.8179782e+11 </wgt>
<wgt id='1365'> +2.7313789e+11 </wgt>
<wgt id='1366'> +2.7571236e+11 </wgt>
<wgt id='1367'> +2.7633474e+11 </wgt>
<wgt id='1368'> +2.7549805e+11 </wgt>
<wgt id='1369'> +2.7985038e+11 </wgt>
<wgt id='1370'> +2.7359403e+11 </wgt>
<wgt id='1371'> +2.7305551e+11 </wgt>
<wgt id='1372'> +2.8003364e+11 </wgt>
<wgt id='1373'> +2.7913520e+11 </wgt>
<wgt id='1374'> +2.6737001e+11 </wgt>
<wgt id='1375'> +2.7430619e+11 </wgt>
<wgt id='1376'> +2.7641537e+11 </wgt>
<wgt id='1377'> +2.7535479e+11 </wgt>
<wgt id='1378'> +2.7118286e+11 </wgt>
<wgt id='1379'> +2.7393851e+11 </wgt>
<wgt id='1380'> +2.7392281e+11 </wgt>
<wgt id='1381'> +2.8079690e+11 </wgt>
<wgt id='1382'> +2.7511562e+11 </wgt>
<wgt id='1383'> +2.7549777e+11 </wgt>
<wgt id='1384'> +2.7387487e+11 </wgt>
<wgt id='1385'> +2.7407888e+11 </wgt>
<wgt id='1386'> +2.7750833e+11 </wgt>
<wgt id='1387'> +2.7449330e+11 </wgt>
<wgt id='1388'> +2.7180312e+11 </wgt>
<wgt id='1389'> +2.7373713e+11 </wgt>
<wgt id='1390'> +2.7432935e+11 </wgt>
<wgt id='1391'> +2.7320779e+11 </wgt>
<wgt id='1392'> +2.7331775e+11 </wgt>
<wgt id='1393'> +2.7339079e+11 </wgt>
<wgt id='1394'> +2.7315281e+11 </wgt>
<wgt id='1395'> +2.7123595e+11 </wgt>
<wgt id='1396'> +2.7652854e+11 </wgt>
<wgt id='1397'> +2.7606007e+11 </wgt>
<wgt id='1398'> +2.7606173e+11 </wgt>
<wgt id='1399'> +2.7102624e+11 </wgt>
<wgt id='1400'> +2.7257388e+11 </wgt>
<wgt id='1401'> +2.7391340e+11 </wgt>
<wgt id='1402'> +2.7873960e+11 </wgt>
<wgt id='1403'> +2.7847647e+11 </wgt>
<wgt id='1404'> +2.7315033e+11 </wgt>
<wgt id='1405'> +2.8158360e+11 </wgt>
<wgt id='1406'> +2.7516169e+11 </wgt>
<wgt id='1407'> +2.7619547e+11 </wgt>
<wgt id='1408'> +2.7859774e+11 </wgt>
<wgt id='1409'> +2.7343182e+11 </wgt>
<wgt id='1410'> +2.7330818e+11 </wgt>
<wgt id='1411'> +2.7515133e+11 </wgt>
<wgt id='1412'> +2.7439882e+11 </wgt>
<wgt id='1413'> +2.7236806e+11 </wgt>
<wgt id='1414'> +2.7714428e+11 </wgt>
<wgt id='1415'> +2.8134173e+11 </wgt>
<wgt id='1416'> +2.7864087e+11 </wgt>
<wgt id='1417'> +2.6867168e+11 </wgt>
<wgt id='1418'> +2.7718795e+11 </wgt>
<wgt id='1419'> +2.7898787e+11 </wgt>
<wgt id='1420'> +2.7472520e+11 </wgt>
<wgt id='1421'> +2.8152457e+11 </wgt>
<wgt id='1422'> +2.6785105e+11 </wgt>
<wgt id='1423'> +2.8072727e+11 </wgt>
<wgt id='1424'> +2.7647229e+11 </wgt>
<wgt id='1425'> +2.7566035e+11 </wgt>
<wgt id='1426'> +2.7908212e+11 </wgt>
<wgt id='1427'> +2.7544481e+11 </wgt>
<wgt id='1428'> +2.7533794e+11 </wgt>
<wgt id='1429'> +2.7119058e+11 </wgt>
<wgt id='1430'> +2.7069848e+11 </wgt>
<wgt id='1431'> +2.7080357e+11 </wgt>
<wgt id='1432'> +2.7748246e+11 </wgt>
<wgt id='1433'> +2.7619485e+11 </wgt>
<wgt id='1434'> +2.8211386e+11 </wgt>
<wgt id='1435'> +2.7461803e+11 </wgt>
<wgt id='1436'> +2.7966567e+11 </wgt>
<wgt id='1437'> +2.7825690e+11 </wgt>
<wgt id='1438'> +2.7346120e+11 </wgt>
<wgt id='1439'> +2.7608616e+11 </wgt>
<wgt id='1440'> +2.8013282e+11 </wgt>
<wgt id='1441'> +2.7546789e+11 </wgt>
<wgt id='1442'> +2.8321101e+11 </wgt>
<wgt id='1443'> +2.7366176e+11 </wgt>
<wgt id='1444'> +2.7366628e+11 </wgt>
<wgt id='1445'> +2.7850506e+11 </wgt>
<wgt id='1446'> +2.7759445e+11 </wgt>
<wgt id='1447'> +2.7141932e+11 </wgt>
<wgt id='1448'> +2.7782514e+11 </wgt>
<wgt id='1449'> +2.7675571e+11 </wgt>
<wgt id='1450'> +2.7353994e+11 </wgt>
<wgt id='1451'> +2.7670037e+11 </wgt>
<wgt id='1452'> +2.7870554e+11 </wgt>
<wgt id='1453'> +2.8065821e+11 </wgt>
<wgt id='1454'> +2.6888353e+11 </wgt>
<wgt id='1455'> +2.7472239e+11 </wgt>
<wgt id='1456'> +2.7471348e+11 </wgt>
<wgt id='1457'> +2.7424281e+11 </wgt>
<wgt id='1458'> +2.7727851e+11 </wgt>
<wgt id='1459'> +3.0500128e+11 </wgt>
<wgt id='1460'> +3.0032754e+11 </wgt>
<wgt id='1461'> +3.4716260e+11 </wgt>
<wgt id='1462'> +2.9971832e+11 </wgt>
<wgt id='1463'> +2.9996912e+11 </wgt>
<wgt id='1464'> +2.9939667e+11 </wgt>
<wgt id='1465'> +2.9977960e+11 </wgt>
<wgt id='1466'> +2.9966234e+11 </wgt>
<wgt id='1467'> +2.9988276e+11 </wgt>
<wgt id='1468'> +2.9944853e+11 </wgt>
<wgt id='1469'> +2.9926710e+11 </wgt>
<wgt id='1470'> +3.0008481e+11 </wgt>
<wgt id='1471'> +3.0019791e+11 </wgt>
<wgt id='1472'> +2.9922436e+11 </wgt>
<wgt id='1473'> +3.0086798e+11 </wgt>
<wgt id='1474'> +2.9861408e+11 </wgt>
<wgt id='1475'> +3.0081599e+11 </wgt>
<wgt id='1476'> +2.9894008e+11 </wgt>
<wgt id='1477'> +2.9914387e+11 </wgt>
<wgt id='1478'> +3.0106017e+11 </wgt>
<wgt id='1479'> +2.9913613e+11 </wgt>
<wgt id='1480'> +3.0012461e+11 </wgt>
<wgt id='1481'> +2.9929958e+11 </wgt>
<wgt id='1482'> +3.0028293e+11 </wgt>
<wgt id='1483'> +2.9981712e+11 </wgt>
<wgt id='1484'> +2.9957796e+11 </wgt>
<wgt id='1485'> +2.9991905e+11 </wgt>
<wgt id='1486'> +2.9923493e+11 </wgt>
<wgt id='1487'> +2.9996598e+11 </wgt>
<wgt id='1488'> +2.9940669e+11 </wgt>
<wgt id='1489'> +2.9936746e+11 </wgt>
<wgt id='1490'> +3.0066946e+11 </wgt>
<wgt id='1491'> +3.0463850e+11 </wgt>
<wgt id='1492'> +2.9697193e+11 </wgt>
<wgt id='1493'> +2.9622368e+11 </wgt>
<wgt id='1494'> +3.1067011e+11 </wgt>
<wgt id='1495'> +2.9908882e+11 </wgt>
<wgt id='1496'> +3.0039347e+11 </wgt>
<wgt id='1497'> +2.9991726e+11 </wgt>
<wgt id='1498'> +2.9944643e+11 </wgt>
<wgt id='1499'> +3.0158166e+11 </wgt>
<wgt id='1500'> +2.9869887e+11 </wgt>
<wgt id='1501'> +3.0018569e+11 </wgt>
<wgt id='1502'> +2.9847953e+11 </wgt>
<wgt id='1503'> +2.9660766e+11 </wgt>
<wgt id='1504'> +3.0301297e+11 </wgt>
<wgt id='1505'> +3.0075506e+11 </wgt>
<wgt id='1506'> +2.9872348e+11 </wgt>
<wgt id='1507'> +3.0096993e+11 </wgt>
<wgt id='1508'> +2.9910341e+11 </wgt>
<wgt id='1509'> +3.0028662e+11 </wgt>
<wgt id='1510'> +2.9727970e+11 </wgt>
<wgt id='1511'> +3.0082212e+11 </wgt>
<wgt id='1512'> +2.9940878e+11 </wgt>
<wgt id='1513'> +2.9964048e+11 </wgt>
<wgt id='1514'> +2.9978767e+11 </wgt>
<wgt id='1515'> +3.0209278e+11 </wgt>
<wgt id='1516'> +3.0020096e+11 </wgt>
<wgt id='1517'> +2.9934966e+11 </wgt>
<wgt id='1518'> +3.0001454e+11 </wgt>
<wgt id='1519'> +2.9810228e+11 </wgt>
<wgt id='1520'> +3.0086871e+11 </wgt>
<wgt id='1521'> +2.9896528e+11 </wgt>
<wgt id='1522'> +3.0017169e+11 </wgt>
<wgt id='1523'> +3.0109191e+11 </wgt>
<wgt id='1524'> +3.0106320e+11 </wgt>
<wgt id='1525'> +3.0097272e+11 </wgt>
<wgt id='1526'> +3.0047704e+11 </wgt>
<wgt id='1527'> +2.9971832e+11 </wgt>
<wgt id='1528'> +2.9956453e+11 </wgt>
<wgt id='1529'> +2.9933848e+11 </wgt>
<wgt id='1530'> +2.9556887e+11 </wgt>
<wgt id='1531'> +2.9655337e+11 </wgt>
<wgt id='1532'> +2.9416331e+11 </wgt>
<wgt id='1533'> +2.9217792e+11 </wgt>
<wgt id='1534'> +2.9494039e+11 </wgt>
<wgt id='1535'> +2.9902594e+11 </wgt>
<wgt id='1536'> +2.9346469e+11 </wgt>
<wgt id='1537'> +2.9644155e+11 </wgt>
<wgt id='1538'> +2.9338839e+11 </wgt>
<wgt id='1539'> +3.0280342e+11 </wgt>
<wgt id='1540'> +2.9567480e+11 </wgt>
<wgt id='1541'> +2.9663504e+11 </wgt>
<wgt id='1542'> +2.9645247e+11 </wgt>
<wgt id='1543'> +2.9757402e+11 </wgt>
<wgt id='1544'> +2.9465258e+11 </wgt>
<wgt id='1545'> +2.9459874e+11 </wgt>
<wgt id='1546'> +2.9265838e+11 </wgt>
<wgt id='1547'> +2.9884505e+11 </wgt>
<wgt id='1548'> +2.9453780e+11 </wgt>
<wgt id='1549'> +2.9322426e+11 </wgt>
<wgt id='1550'> +2.9713828e+11 </wgt>
<wgt id='1551'> +2.9720258e+11 </wgt>
<wgt id='1552'> +2.9586174e+11 </wgt>
<wgt id='1553'> +2.9833156e+11 </wgt>
<wgt id='1554'> +2.9639212e+11 </wgt>
<wgt id='1555'> +2.9714929e+11 </wgt>
<wgt id='1556'> +2.9891102e+11 </wgt>
<wgt id='1557'> +2.9587034e+11 </wgt>
<wgt id='1558'> +2.9652500e+11 </wgt>
<wgt id='1559'> +2.9454131e+11 </wgt>
<wgt id='1560'> +2.9534139e+11 </wgt>
<wgt id='1561'> +2.9257810e+11 </wgt>
<wgt id='1562'> +2.9511028e+11 </wgt>
<wgt id='1563'> +2.9647001e+11 </wgt>
<wgt id='1564'> +2.9617450e+11 </wgt>
<wgt id='1565'> +2.9875187e+11 </wgt>
<wgt id='1566'> +2.9686245e+11 </wgt>
<wgt id='1567'> +3.0012418e+11 </wgt>
<wgt id='1568'> +2.9649833e+11 </wgt>
<wgt id='1569'> +2.9619147e+11 </wgt>
<wgt id='1570'> +2.9799246e+11 </wgt>
<wgt id='1571'> +2.9635008e+11 </wgt>
<wgt id='1572'> +2.9823826e+11 </wgt>
<wgt id='1573'> +2.9931716e+11 </wgt>
<wgt id='1574'> +2.6392925e+11 </wgt>
<wgt id='1575'> +2.6400124e+11 </wgt>
<wgt id='1576'> +2.6386164e+11 </wgt>
<wgt id='1577'> +2.6394746e+11 </wgt>
<wgt id='1578'> +2.6453728e+11 </wgt>
<wgt id='1579'> +2.6479654e+11 </wgt>
<wgt id='1580'> +2.6456863e+11 </wgt>
<wgt id='1581'> +2.6330045e+11 </wgt>
<wgt id='1582'> +2.6299254e+11 </wgt>
<wgt id='1583'> +2.6349316e+11 </wgt>
<wgt id='1584'> +2.6450587e+11 </wgt>
<wgt id='1585'> +2.6411651e+11 </wgt>
<wgt id='1586'> +2.6290209e+11 </wgt>
<wgt id='1587'> +2.6315961e+11 </wgt>
<wgt id='1588'> +2.6265564e+11 </wgt>
<wgt id='1589'> +2.6368144e+11 </wgt>
<wgt id='1590'> +2.6374004e+11 </wgt>
<wgt id='1591'> +2.6399654e+11 </wgt>
<wgt id='1592'> +2.6289744e+11 </wgt>
<wgt id='1593'> +2.6306939e+11 </wgt>
<wgt id='1594'> +2.6473652e+11 </wgt>
<wgt id='1595'> +2.6170773e+11 </wgt>
<wgt id='1596'> +2.6749016e+11 </wgt>
<wgt id='1597'> +2.6565745e+11 </wgt>
<wgt id='1598'> +2.6588651e+11 </wgt>
<wgt id='1599'> +2.6119730e+11 </wgt>
<wgt id='1600'> +2.6833718e+11 </wgt>
<wgt id='1601'> +2.6607096e+11 </wgt>
<wgt id='1602'> +2.6398661e+11 </wgt>
<wgt id='1603'> +2.7424020e+11 </wgt>
<wgt id='1604'> +2.6400621e+11 </wgt>
</rwgt>
</event>
<event>
 9      1 +2.8343000e+11 1.40000100e+03 7.81738600e-03 7.88881100e-02
       21 -1    0    0  504  503 +0.0000000000e+00 +0.0000000000e+00 +1.5213803991e+03 1.5213803991e+03 0.0000000000e+00 0.0000e+00 1.0000e+00
       21 -1    0    0  503  504 -0.0000000000e+00 -0.0000000000e+00 -3.2207622168e+02 3.2207622168e+02 0.0000000000e+00 0.0000e+00 1.0000e+00
       45  2    1    2    0    0 +0.0000000000e+00 -5.6843418861e-14 +1.1993041774e+03 1.8434566208e+03 1.4000006438e+03 0.0000e+00 0.0000e+00
       25  2    3    3    0    0 -6.3094418945e+02 +2.7624981934e+02 +6.8249116548e+02 9.7766221258e+02 1.2499871219e+02 0.0000e+00 0.0000e+00
       35  2    3    3    0    0 +6.3094418945e+02 -2.7624981934e+02 +5.1681301196e+02 8.6579440821e+02 8.9998528189e+01 0.0000e+00 0.0000e+00
        5  1    5    5  501    0 +5.6359331514e+02 -2.3250104270e+02 +4.8594793595e+02 7.7965204673e+02 4.2140000000e+00 0.0000e+00 -1.0000e+00
       -5  1    5    5    0  501 +6.7350874311e+01 -4.3748776643e+01 +3.0865076007e+01 8.6142361479e+01 4.2140000000e+00 0.0000e+00 -1.0000e+00
        5  1    4    4  502    0 -1.3152544918e+02 +9.3582101771e+01 +2.1994140327e+02 2.7285258332e+02 4.2140000000e+00 0.0000e+00 -1.0000e+00
       -5  1    4    4    0  502 -4.9941874028e+02 +1.8266771757e+02 +4.6254976221e+02 7.0480962926e+02 4.2140000000e+00 0.0000e+00 -1.0000e+00
<mgrwt>
<rscale>  0 0.14000006E+04</rscale>
<asrwt>0</asrwt>
<pdfrwt beam="1">  1       21 0.23405852E+00 0.14000006E+04</pdfrwt>
<pdfrwt beam="2">  1       21 0.49550189E-01 0.14000006E+04</pdfrwt>
<totfact> 0.20487911E+02</totfact>
</mgrwt>
<rwgt>
<wgt id='1001'> +2.8343000e+11 </wgt>
<wgt id='1002'> +2.8400032e+11 </wgt>
<wgt id='1003'> +2.8399816e+11 </wgt>
<wgt id='1004'> +3.2030790e+11 </wgt>
<wgt id='1005'> +2.8343000e+11 </wgt>
<wgt id='1006'> +2.8343000e+11 </wgt>
<wgt id='1007'> +2.8400032e+11 </wgt>
<wgt id='1008'> +2.8399816e+11 </wgt>
<wgt id='1009'> +3.2030790e+11 </wgt>
<wgt id='1010'> +2.8343000e+11 </wgt>
<wgt id='1011'> +2.8343000e+11 </wgt>
<wgt id='1012'> +2.8400032e+11 </wgt>
<wgt id='1013'> +2.8399816e+11 </wgt>
<wgt id='1014'> +3.2030790e+11 </wgt>
<wgt id='1015'> +2.8343000e+11 </wgt>
<wgt id='1016'> +2.5321711e+11 </wgt>
<wgt id='1017'> +2.5369660e+11 </wgt>
<wgt id='1018'> +2.5369478e+11 </wgt>
<wgt id='1019'> +2.8399816e+11 </wgt>
<wgt id='1020'> +2.5321711e+11 </wgt>
<wgt id='1021'> +2.5321711e+11 </wgt>
<wgt id='1022'> +2.5369660e+11 </wgt>
<wgt id='1023'> +2.5369478e+11 </wgt>
<wgt id='1024'> +2.8399816e+11 </wgt>
<wgt id='1025'> +2.5321711e+11 </wgt>
<wgt id='1026'> +2.5321711e+11 </wgt>
<wgt id='1027'> +2.5369660e+11 </wgt>
<wgt id='1028'> +2.5369478e+11 </wgt>
<wgt id='1029'> +2.8399816e+11 </wgt>
<wgt id='1030'> +2.5321711e+11 </wgt>
<wgt id='1031'> +3.1962334e+11 </wgt>
<wgt id='1032'> +3.2031050e+11 </wgt>
<wgt id='1033'> +3.2030790e+11 </wgt>
<wgt id='1034'> +3.6425943e+11 </wgt>
<wgt id='1035'> +3.1962334e+11 </wgt>
<wgt id='1036'> +3.1962334e+11 </wgt>
<wgt id='1037'> +3.2031050e+11 </wgt>
<wgt id='1038'> +3.2030790e+11 </wgt>
<wgt id='1039'> +3.6425943e+11 </wgt>
<wgt id='1040'> +3.1962334e+11 </wgt>
<wgt id='1041'> +3.1962334e+11 </wgt>
<wgt id='1042'> +3.2031050e+11 </wgt>
<wgt id='1043'> +3.2030790e+11 </wgt>
<wgt id='1044'> +3.6425943e+11 </wgt>
<wgt id='1045'> +3.1962334e+11 </wgt>
<wgt id='1046'> +2.8343000e+11 </wgt>
<wgt id='1047'> +2.8343000e+11 </wgt>
<wgt id='1048'> +2.8343000e+11 </wgt>
<wgt id='1049'> +2.8305344e+11 </wgt>
<wgt id='1050'> +2.8311136e+11 </wgt>
<wgt id='1051'> +2.8352833e+11 </wgt>
<wgt id='1052'> +2.8398156e+11 </wgt>
<wgt id='1053'> +2.8147395e+11 </wgt>
<wgt id='1054'> +2.8404714e+11 </wgt>
<wgt id='1055'> +2.8201857e+11 </wgt>
<wgt id='1056'> +2.8180746e+11 </wgt>
<wgt id='1057'> +2.8233264e+11 </wgt>
<wgt id='1058'> +2.8247393e+11 </wgt>
<wgt id='1059'> +2.8577832e+11 </wgt>
<wgt id='1060'> +2.8360099e+11 </wgt>
<wgt id='1061'> +2.8407557e+11 </wgt>
<wgt id='1062'> +2.8426952e+11 </wgt>
<wgt id='1063'> +2.8474747e+11 </wgt>
<wgt id='1064'> +2.8420827e+11 </wgt>
<wgt id='1065'> +2.8505597e+11 </wgt>
<wgt id='1066'> +2.8182440e+11 </wgt>
<wgt id='1067'> +2.8245914e+11 </wgt>
<wgt id='1068'> +2.8414073e+11 </wgt>
<wgt id='1069'> +2.8246666e+11 </wgt>
<wgt id='1070'> +2.8409538e+11 </wgt>
<wgt id='1071'> +2.8283492e+11 </wgt>
<wgt id='1072'> +2.8415468e+11 </wgt>
<wgt id='1073'> +2.8192807e+11 </wgt>
<wgt id='1074'> +2.8222625e+11 </wgt>
<wgt id='1075'> +2.8319855e+11 </wgt>
<wgt id='1076'> +2.8216017e+11 </wgt>
<wgt id='1077'> +2.8197550e+11 </wgt>
<wgt id='1078'> +2.8373632e+11 </wgt>
<wgt id='1079'> +2.8237483e+11 </wgt>
<wgt id='1080'> +2.8275210e+11 </wgt>
<wgt id='1081'> +2.8315343e+11 </wgt>
<wgt id='1082'> +2.8273761e+11 </wgt>
<wgt id='1083'> +2.8448333e+11 </wgt>
<wgt id='1084'> +2.8403539e+11 </wgt>
<wgt id='1085'> +2.8244119e+11 </wgt>
<wgt id='1086'> +2.8401307e+11 </wgt>
<wgt id='1087'> +2.8359581e+11 </wgt>
<wgt id='1088'> +2.8273628e+11 </wgt>
<wgt id='1089'> +2.8249444e+11 </wgt>
<wgt id='1090'> +2.8423456e+11 </wgt>
<wgt id='1091'> +2.8366555e+11 </wgt>
<wgt id='1092'> +2.8364228e+11 </wgt>
<wgt id='1093'> +2.8340805e+11 </wgt>
<wgt id='1094'> +2.8199229e+11 </wgt>
<wgt id='1095'> +2.8374898e+11 </wgt>
<wgt id='1096'> +2.8340183e+11 </wgt>
<wgt id='1097'> +2.8276110e+11 </wgt>
<wgt id='1098'> +2.8311865e+11 </wgt>
<wgt id='1099'> +2.8325241e+11 </wgt>
<wgt id='1100'> +2.8398038e+11 </wgt>
<wgt id='1101'> +2.8340587e+11 </wgt>
<wgt id='1102'> +2.8327095e+11 </wgt>
<wgt id='1103'> +2.8246391e+11 </wgt>
<wgt id='1104'> +2.8347628e+11 </wgt>
<wgt id='1105'> +2.8352746e+11 </wgt>
<wgt id='1106'> +2.8387759e+11 </wgt>
<wgt id='1107'> +2.8376579e+11 </wgt>
<wgt id='1108'> +2.8318365e+11 </wgt>
<wgt id='1109'> +2.8331528e+11 </wgt>
<wgt id='1110'> +2.8362215e+11 </wgt>
<wgt id='1111'> +2.8384590e+11 </wgt>
<wgt id='1112'> +2.8328949e+11 </wgt>
<wgt id='1113'> +2.8380927e+11 </wgt>
<wgt id='1114'> +2.8312357e+11 </wgt>
<wgt id='1115'> +2.8279156e+11 </wgt>
<wgt id='1116'> +2.8427175e+11 </wgt>
<wgt id='1117'> +2.8334016e+11 </wgt>
<wgt id='1118'> +2.8388009e+11 </wgt>
<wgt id='1119'> +2.8292746e+11 </wgt>
<wgt id='1120'> +2.8287741e+11 </wgt>
<wgt id='1121'> +2.8348630e+11 </wgt>
<wgt id='1122'> +2.8295102e+11 </wgt>
<wgt id='1123'> +2.8336325e+11 </wgt>
<wgt id='1124'> +2.8355050e+11 </wgt>
<wgt id='1125'> +2.8361849e+11 </wgt>
<wgt id='1126'> +2.8357658e+11 </wgt>
<wgt id='1127'> +2.8331335e+11 </wgt>
<wgt id='1128'> +2.8331923e+11 </wgt>
<wgt id='1129'> +2.8320333e+11 </wgt>
<wgt id='1130'> +2.8345681e+11 </wgt>
<wgt id='1131'> +2.8407678e+11 </wgt>
<wgt id='1132'> +2.8328331e+11 </wgt>
<wgt id='1133'> +2.8361565e+11 </wgt>
<wgt id='1134'> +2.8339251e+11 </wgt>
<wgt id='1135'> +2.8346876e+11 </wgt>
<wgt id='1136'> +2.8325165e+11 </wgt>
<wgt id='1137'> +2.8316601e+11 </wgt>
<wgt id='1138'> +2.8358864e+11 </wgt>
<wgt id='1139'> +2.8359270e+11 </wgt>
<wgt id='1140'> +2.8374029e+11 </wgt>
<wgt id='1141'> +2.8310401e+11 </wgt>
<wgt id='1142'> +2.8349254e+11 </wgt>
<wgt id='1143'> +2.8365732e+11 </wgt>
<wgt id='1144'> +2.8332488e+11 </wgt>
<wgt id='1145'> +2.8361812e+11 </wgt>
<wgt id='1146'> +2.8354516e+11 </wgt>
<wgt id='1147'> +2.8350012e+11 </wgt>
<wgt id='1148'> +2.8343000e+11 </wgt>
<wgt id='1149'> +2.8343000e+11 </wgt>
<wgt id='1150'> +2.9358628e+11 </wgt>
<wgt id='1151'> +2.7653555e+11 </wgt>
<wgt id='1152'> +2.7071608e+11 </wgt>
<wgt id='1153'> +2.8556323e+11 </wgt>
<wgt id='1154'> +2.7743610e+11 </wgt>
<wgt id='1155'> +2.9828304e+11 </wgt>
<wgt id='1156'> +2.8228119e+11 </wgt>
<wgt id='1157'> +2.7762986e+11 </wgt>
<wgt id='1158'> +2.7736969e+11 </wgt>
<wgt id='1159'> +2.9267290e+11 </wgt>
<wgt id='1160'> +2.8371537e+11 </wgt>
<wgt id='1161'> +2.9544029e+11 </wgt>
<wgt id='1162'> +2.8713111e+11 </wgt>
<wgt id='1163'> +2.8796539e+11 </wgt>
<wgt id='1164'> +2.7447463e+11 </wgt>
<wgt id='1165'> +2.7545896e+11 </wgt>
<wgt id='1166'> +2.8371544e+11 </wgt>
<wgt id='1167'> +2.7917258e+11 </wgt>
<wgt id='1168'> +2.7238368e+11 </wgt>
<wgt id='1169'> +2.7637399e+11 </wgt>
<wgt id='1170'> +2.8467802e+11 </wgt>
<wgt id='1171'> +2.7420172e+11 </wgt>
<wgt id='1172'> +2.7205681e+11 </wgt>
<wgt id='1173'> +2.8719684e+11 </wgt>
<wgt id='1174'> +2.7765794e+11 </wgt>
<wgt id='1175'> +2.7902515e+11 </wgt>
<wgt id='1176'> +2.8841908e+11 </wgt>
<wgt id='1177'> +2.8138870e+11 </wgt>
<wgt id='1178'> +2.8643564e+11 </wgt>
<wgt id='1179'> +2.9025885e+11 </wgt>
<wgt id='1180'> +2.7563529e+11 </wgt>
<wgt id='1181'> +2.9283639e+11 </wgt>
<wgt id='1182'> +2.8242962e+11 </wgt>
<wgt id='1183'> +2.8910762e+11 </wgt>
<wgt id='1184'> +2.6852198e+11 </wgt>
<wgt id='1185'> +2.9117335e+11 </wgt>
<wgt id='1186'> +2.7904267e+11 </wgt>
<wgt id='1187'> +2.8747268e+11 </wgt>
<wgt id='1188'> +2.9346350e+11 </wgt>
<wgt id='1189'> +2.8334052e+11 </wgt>
<wgt id='1190'> +2.8042318e+11 </wgt>
<wgt id='1191'> +2.9223205e+11 </wgt>
<wgt id='1192'> +2.8732068e+11 </wgt>
<wgt id='1193'> +2.8800584e+11 </wgt>
<wgt id='1194'> +2.7651825e+11 </wgt>
<wgt id='1195'> +2.8966280e+11 </wgt>
<wgt id='1196'> +2.8964584e+11 </wgt>
<wgt id='1197'> +2.9070965e+11 </wgt>
<wgt id='1198'> +2.8639703e+11 </wgt>
<wgt id='1199'> +2.8481124e+11 </wgt>
<wgt id='1200'> +2.9304246e+11 </wgt>
<wgt id='1201'> +2.8440797e+11 </wgt>
<wgt id='1202'> +2.8356130e+11 </wgt>
<wgt id='1203'> +2.8714584e+11 </wgt>
<wgt id='1204'> +2.7875200e+11 </wgt>
<wgt id='1205'> +2.8718394e+11 </wgt>
<wgt id='1206'> +2.8120775e+11 </wgt>
<wgt id='1207'> +2.9277946e+11 </wgt>
<wgt id='1208'> +2.7275673e+11 </wgt>
<wgt id='1209'> +2.8581446e+11 </wgt>
<wgt id='1210'> +2.8664155e+11 </wgt>
<wgt id='1211'> +2.7873228e+11 </wgt>
<wgt id='1212'> +2.8197706e+11 </wgt>
<wgt id='1213'> +2.8432335e+11 </wgt>
<wgt id='1214'> +2.8026503e+11 </wgt>
<wgt id='1215'> +2.7785797e+11 </wgt>
<wgt id='1216'> +2.7149098e+11 </wgt>
<wgt id='1217'> +2.8350514e+11 </wgt>
<wgt id='1218'> +2.8458704e+11 </wgt>
<wgt id='1219'> +2.9260168e+11 </wgt>
<wgt id='1220'> +2.8126039e+11 </wgt>
<wgt id='1221'> +2.7595587e+11 </wgt>
<wgt id='1222'> +2.7932595e+11 </wgt>
<wgt id='1223'> +2.7460426e+11 </wgt>
<wgt id='1224'> +2.8189192e+11 </wgt>
<wgt id='1225'> +2.7820128e+11 </wgt>
<wgt id='1226'> +2.8496045e+11 </wgt>
<wgt id='1227'> +2.7993746e+11 </wgt>
<wgt id='1228'> +2.8179287e+11 </wgt>
<wgt id='1229'> +2.9869458e+11 </wgt>
<wgt id='1230'> +2.8691031e+11 </wgt>
<wgt id='1231'> +2.7545896e+11 </wgt>
<wgt id='1232'> +2.8928145e+11 </wgt>
<wgt id='1233'> +2.7753800e+11 </wgt>
<wgt id='1234'> +2.7860857e+11 </wgt>
<wgt id='1235'> +3.0219950e+11 </wgt>
<wgt id='1236'> +2.8161593e+11 </wgt>
<wgt id='1237'> +2.9259193e+11 </wgt>
<wgt id='1238'> +2.8102730e+11 </wgt>
<wgt id='1239'> +2.8790486e+11 </wgt>
<wgt id='1240'> +2.7404773e+11 </wgt>
<wgt id='1241'> +2.9090862e+11 </wgt>
<wgt id='1242'> +2.8185991e+11 </wgt>
<wgt id='1243'> +2.8252395e+11 </wgt>
<wgt id='1244'> +2.9269052e+11 </wgt>
<wgt id='1245'> +2.7133670e+11 </wgt>
<wgt id='1246'> +3.0344555e+11 </wgt>
<wgt id='1247'> +2.8154203e+11 </wgt>
<wgt id='1248'> +2.7428894e+11 </wgt>
<wgt id='1249'> +2.7563454e+11 </wgt>
<wgt id='1250'> +2.9569803e+11 </wgt>
<wgt id='1251'> +3.0589542e+11 </wgt>
<wgt id='1252'> +2.8922090e+11 </wgt>
<wgt id='1253'> +3.0086013e+11 </wgt>
<wgt id='1254'> +2.9207752e+11 </wgt>
<wgt id='1255'> +3.1002665e+11 </wgt>
<wgt id='1256'> +3.0799054e+11 </wgt>
<wgt id='1257'> +3.0309493e+11 </wgt>
<wgt id='1258'> +2.9199093e+11 </wgt>
<wgt id='1259'> +3.1485618e+11 </wgt>
<wgt id='1260'> +3.3526108e+11 </wgt>
<wgt id='1261'> +3.2036247e+11 </wgt>
<wgt id='1262'> +2.9933017e+11 </wgt>
<wgt id='1263'> +3.0366987e+11 </wgt>
<wgt id='1264'> +3.0492878e+11 </wgt>
<wgt id='1265'> +2.9081999e+11 </wgt>
<wgt id='1266'> +3.0798253e+11 </wgt>
<wgt id='1267'> +3.6795359e+11 </wgt>
<wgt id='1268'> +2.8760960e+11 </wgt>
<wgt id='1269'> +2.8669480e+11 </wgt>
<wgt id='1270'> +3.1425496e+11 </wgt>
<wgt id='1271'> +2.6148518e+11 </wgt>
<wgt id='1272'> +2.9692224e+11 </wgt>
<wgt id='1273'> +2.9244305e+11 </wgt>
<wgt id='1274'> +2.8957522e+11 </wgt>
<wgt id='1275'> +2.9180656e+11 </wgt>
<wgt id='1276'> +3.1076723e+11 </wgt>
<wgt id='1277'> +3.0704727e+11 </wgt>
<wgt id='1278'> +3.0514240e+11 </wgt>
<wgt id='1279'> +2.7896670e+11 </wgt>
<wgt id='1280'> +2.8862101e+11 </wgt>
<wgt id='1281'> +2.8639441e+11 </wgt>
<wgt id='1282'> +2.9461060e+11 </wgt>
<wgt id='1283'> +3.2182053e+11 </wgt>
<wgt id='1284'> +3.0431211e+11 </wgt>
<wgt id='1285'> +3.0768608e+11 </wgt>
<wgt id='1286'> +3.3768185e+11 </wgt>
<wgt id='1287'> +3.2596225e+11 </wgt>
<wgt id='1288'> +3.5094927e+11 </wgt>
<wgt id='1289'> +3.2164818e+11 </wgt>
<wgt id='1290'> +3.1544052e+11 </wgt>
<wgt id='1291'> +2.8086819e+11 </wgt>
<wgt id='1292'> +3.0861070e+11 </wgt>
<wgt id='1293'> +3.0554309e+11 </wgt>
<wgt id='1294'> +3.3741686e+11 </wgt>
<wgt id='1295'> +3.1512859e+11 </wgt>
<wgt id='1296'> +3.4452507e+11 </wgt>
<wgt id='1297'> +2.8710529e+11 </wgt>
<wgt id='1298'> +2.9244354e+11 </wgt>
<wgt id='1299'> +3.0849155e+11 </wgt>
<wgt id='1300'> +2.7330382e+11 </wgt>
<wgt id='1301'> +2.8078579e+11 </wgt>
<wgt id='1302'> +2.8094657e+11 </wgt>
<wgt id='1303'> +3.0965044e+11 </wgt>
<wgt id='1304'> +3.4180776e+11 </wgt>
<wgt id='1305'> +2.9824482e+11 </wgt>
<wgt id='1306'> +3.0759544e+11 </wgt>
<wgt id='1307'> +2.7927188e+11 </wgt>
<wgt id='1308'> +3.3692860e+11 </wgt>
<wgt id='1309'> +3.0696707e+11 </wgt>
<wgt id='1310'> +3.0667795e+11 </wgt>
<wgt id='1311'> +2.9359409e+11 </wgt>
<wgt id='1312'> +3.3053934e+11 </wgt>
<wgt id='1313'> +3.1186070e+11 </wgt>
<wgt id='1314'> +2.8714643e+11 </wgt>
<wgt id='1315'> +2.8885052e+11 </wgt>
<wgt id='1316'> +3.0108756e+11 </wgt>
<wgt id='1317'> +3.2611392e+11 </wgt>
<wgt id='1318'> +2.9280330e+11 </wgt>
<wgt id='1319'> +3.0080220e+11 </wgt>
<wgt id='1320'> +3.2406619e+11 </wgt>
<wgt id='1321'> +3.1061635e+11 </wgt>
<wgt id='1322'> +3.2418080e+11 </wgt>
<wgt id='1323'> +2.8120483e+11 </wgt>
<wgt id='1324'> +3.1734093e+11 </wgt>
<wgt id='1325'> +3.1628029e+11 </wgt>
<wgt id='1326'> +3.1398991e+11 </wgt>
<wgt id='1327'> +3.2454701e+11 </wgt>
<wgt id='1328'> +3.0388611e+11 </wgt>
<wgt id='1329'> +2.9754604e+11 </wgt>
<wgt id='1330'> +2.8182328e+11 </wgt>
<wgt id='1331'> +3.2783337e+11 </wgt>
<wgt id='1332'> +3.0792937e+11 </wgt>
<wgt id='1333'> +3.0374251e+11 </wgt>
<wgt id='1334'> +3.2683018e+11 </wgt>
<wgt id='1335'> +2.8948045e+11 </wgt>
<wgt id='1336'> +3.2939442e+11 </wgt>
<wgt id='1337'> +3.1174195e+11 </wgt>
<wgt id='1338'> +2.8546942e+11 </wgt>
<wgt id='1339'> +3.0962457e+11 </wgt>
<wgt id='1340'> +3.2232374e+11 </wgt>
<wgt id='1341'> +3.4535451e+11 </wgt>
<wgt id='1342'> +2.9502455e+11 </wgt>
<wgt id='1343'> +3.1047745e+11 </wgt>
<wgt id='1344'> +3.2620812e+11 </wgt>
<wgt id='1345'> +2.5106556e+11 </wgt>
<wgt id='1346'> +3.0794302e+11 </wgt>
<wgt id='1347'> +2.9993530e+11 </wgt>
<wgt id='1348'> +2.9273649e+11 </wgt>
<wgt id='1349'> +2.9129396e+11 </wgt>
<wgt id='1350'> +3.2241361e+11 </wgt>
<wgt id='1351'> +2.8917404e+11 </wgt>
<wgt id='1352'> +3.0799713e+11 </wgt>
<wgt id='1353'> +3.0643288e+11 </wgt>
<wgt id='1354'> +3.1479733e+11 </wgt>
<wgt id='1355'> +2.8248354e+11 </wgt>
<wgt id='1356'> +2.8491783e+11 </wgt>
<wgt id='1357'> +2.8389346e+11 </wgt>
<wgt id='1358'> +2.8116569e+11 </wgt>
<wgt id='1359'> +2.8044673e+11 </wgt>
<wgt id='1360'> +2.7801571e+11 </wgt>
<wgt id='1361'> +2.8069852e+11 </wgt>
<wgt id='1362'> +2.9182771e+11 </wgt>
<wgt id='1363'> +2.8260220e+11 </wgt>
<wgt id='1364'> +2.9041682e+11 </wgt>
<wgt id='1365'> +2.8034597e+11 </wgt>
<wgt id='1366'> +2.7858092e+11 </wgt>
<wgt id='1367'> +2.8003038e+11 </wgt>
<wgt id='1368'> +2.8418784e+11 </wgt>
<wgt id='1369'> +2.8605789e+11 </wgt>
<wgt id='1370'> +2.7662761e+11 </wgt>
<wgt id='1371'> +2.8160402e+11 </wgt>
<wgt id='1372'> +2.8049491e+11 </wgt>
<wgt id='1373'> +2.8683603e+11 </wgt>
<wgt id='1374'> +2.7803813e+11 </wgt>
<wgt id='1375'> +2.8460357e+11 </wgt>
<wgt id='1376'> +2.8166840e+11 </wgt>
<wgt id='1377'> +2.8221465e+11 </wgt>
<wgt id='1378'> +2.8555669e+11 </wgt>
<wgt id='1379'> +2.8054170e+11 </wgt>
<wgt id='1380'> +2.7991321e+11 </wgt>
<wgt id='1381'> +2.8621259e+11 </wgt>
<wgt id='1382'> +2.8007188e+11 </wgt>
<wgt id='1383'> +2.7891446e+11 </wgt>
<wgt id='1384'> +2.7602995e+11 </wgt>
<wgt id='1385'> +2.7637503e+11 </wgt>
<wgt id='1386'> +2.7870042e+11 </wgt>
<wgt id='1387'> +2.8098102e+11 </wgt>
<wgt id='1388'> +2.7834457e+11 </wgt>
<wgt id='1389'> +2.7986931e+11 </wgt>
<wgt id='1390'> +2.8600357e+11 </wgt>
<wgt id='1391'> +2.8372913e+11 </wgt>
<wgt id='1392'> +2.7641678e+11 </wgt>
<wgt id='1393'> +2.8530747e+11 </wgt>
<wgt id='1394'> +2.8306562e+11 </wgt>
<wgt id='1395'> +2.7652138e+11 </wgt>
<wgt id='1396'> +2.8268410e+11 </wgt>
<wgt id='1397'> +2.8243400e+11 </wgt>
<wgt id='1398'> +2.8889283e+11 </wgt>
<wgt id='1399'> +2.8086807e+11 </wgt>
<wgt id='1400'> +2.7626276e+11 </wgt>
<wgt id='1401'> +2.8303129e+11 </wgt>
<wgt id='1402'> +2.8452877e+11 </wgt>
<wgt id='1403'> +2.9404686e+11 </wgt>
<wgt id='1404'> +2.8730064e+11 </wgt>
<wgt id='1405'> +2.9151802e+11 </wgt>
<wgt id='1406'> +2.8763980e+11 </wgt>
<wgt id='1407'> +2.8487129e+11 </wgt>
<wgt id='1408'> +2.9248333e+11 </wgt>
<wgt id='1409'> +2.7605410e+11 </wgt>
<wgt id='1410'> +2.7441488e+11 </wgt>
<wgt id='1411'> +2.8215263e+11 </wgt>
<wgt id='1412'> +2.8374935e+11 </wgt>
<wgt id='1413'> +2.8820366e+11 </wgt>
<wgt id='1414'> +2.8505743e+11 </wgt>
<wgt id='1415'> +2.7900654e+11 </wgt>
<wgt id='1416'> +2.8273872e+11 </wgt>
<wgt id='1417'> +2.8058446e+11 </wgt>
<wgt id='1418'> +2.8051501e+11 </wgt>
<wgt id='1419'> +2.8521672e+11 </wgt>
<wgt id='1420'> +2.7426814e+11 </wgt>
<wgt id='1421'> +2.9006978e+11 </wgt>
<wgt id='1422'> +2.7434833e+11 </wgt>
<wgt id='1423'> +2.8540167e+11 </wgt>
<wgt id='1424'> +2.8167792e+11 </wgt>
<wgt id='1425'> +2.8229772e+11 </wgt>
<wgt id='1426'> +2.8549086e+11 </wgt>
<wgt id='1427'> +2.7993239e+11 </wgt>
<wgt id='1428'> +2.7948089e+11 </wgt>
<wgt id='1429'> +2.8389329e+11 </wgt>
<wgt id='1430'> +2.7927403e+11 </wgt>
<wgt id='1431'> +2.8098664e+11 </wgt>
<wgt id='1432'> +2.7654853e+11 </wgt>
<wgt id='1433'> +2.7558126e+11 </wgt>
<wgt id='1434'> +2.8810176e+11 </wgt>
<wgt id='1435'> +2.8250928e+11 </wgt>
<wgt id='1436'> +2.8650200e+11 </wgt>
<wgt id='1437'> +2.8013630e+11 </wgt>
<wgt id='1438'> +2.8239247e+11 </wgt>
<wgt id='1439'> +2.9100930e+11 </wgt>
<wgt id='1440'> +2.8210916e+11 </wgt>
<wgt id='1441'> +2.7779299e+11 </wgt>
<wgt id='1442'> +2.8369206e+11 </wgt>
<wgt id='1443'> +2.7761287e+11 </wgt>
<wgt id='1444'> +2.9106616e+11 </wgt>
<wgt id='1445'> +2.8006270e+11 </wgt>
<wgt id='1446'> +2.9322019e+11 </wgt>
<wgt id='1447'> +2.8386498e+11 </wgt>
<wgt id='1448'> +2.8536935e+11 </wgt>
<wgt id='1449'> +2.8533635e+11 </wgt>
<wgt id='1450'> +2.8131771e+11 </wgt>
<wgt id='1451'> +2.8124480e+11 </wgt>
<wgt id='1452'> +2.8494202e+11 </wgt>
<wgt id='1453'> +2.8508848e+11 </wgt>
<wgt id='1454'> +2.7297392e+11 </wgt>
<wgt id='1455'> +2.8076178e+11 </wgt>
<wgt id='1456'> +2.8037024e+11 </wgt>
<wgt id='1457'> +2.8280508e+11 </wgt>
<wgt id='1458'> +2.9067879e+11 </wgt>
<wgt id='1459'> +3.1498448e+11 </wgt>
<wgt id='1460'> +3.0947899e+11 </wgt>
<wgt id='1461'> +3.7352123e+11 </wgt>
<wgt id='1462'> +3.0386716e+11 </wgt>
<wgt id='1463'> +3.0408183e+11 </wgt>
<wgt id='1464'> +3.0359187e+11 </wgt>
<wgt id='1465'> +3.0393715e+11 </wgt>
<wgt id='1466'> +3.0380324e+11 </wgt>
<wgt id='1467'> +3.0396833e+11 </wgt>
<wgt id='1468'> +3.0370117e+11 </wgt>
<wgt id='1469'> +3.0343615e+11 </wgt>
<wgt id='1470'> +3.0421720e+11 </wgt>
<wgt id='1471'> +3.0431115e+11 </wgt>
<wgt id='1472'> +3.0340983e+11 </wgt>
<wgt id='1473'> +3.0509010e+11 </wgt>
<wgt id='1474'> +3.0269250e+11 </wgt>
<wgt id='1475'> +3.0502099e+11 </wgt>
<wgt id='1476'> +3.0304933e+11 </wgt>
<wgt id='1477'> +3.0332299e+11 </wgt>
<wgt id='1478'> +3.0513869e+11 </wgt>
<wgt id='1479'> +3.0360466e+11 </wgt>
<wgt id='1480'> +3.0405676e+11 </wgt>
<wgt id='1481'> +3.0323964e+11 </wgt>
<wgt id='1482'> +3.0471719e+11 </wgt>
<wgt id='1483'> +3.0390945e+11 </wgt>
<wgt id='1484'> +3.0381283e+11 </wgt>
<wgt id='1485'> +3.0407475e+11 </wgt>
<wgt id='1486'> +3.0336706e+11 </wgt>
<wgt id='1487'> +3.0415459e+11 </wgt>
<wgt id='1488'> +3.0350786e+11 </wgt>
<wgt id='1489'> +3.0348051e+11 </wgt>
<wgt id='1490'> +3.0491593e+11 </wgt>
<wgt id='1491'> +3.0901884e+11 </wgt>
<wgt id='1492'> +3.0099828e+11 </wgt>
<wgt id='1493'> +3.0010515e+11 </wgt>
<wgt id='1494'> +3.1566807e+11 </wgt>
<wgt id='1495'> +3.0295247e+11 </wgt>
<wgt id='1496'> +3.0484997e+11 </wgt>
<wgt id='1497'> +3.0408995e+11 </wgt>
<wgt id='1498'> +3.0356325e+11 </wgt>
<wgt id='1499'> +3.0608358e+11 </wgt>
<wgt id='1500'> +3.0265806e+11 </wgt>
<wgt id='1501'> +3.0414634e+11 </wgt>
<wgt id='1502'> +3.0313982e+11 </wgt>
<wgt id='1503'> +2.9903094e+11 </wgt>
<wgt id='1504'> +3.0935079e+11 </wgt>
<wgt id='1505'> +3.0442233e+11 </wgt>
<wgt id='1506'> +3.0331568e+11 </wgt>
<wgt id='1507'> +3.0797541e+11 </wgt>
<wgt id='1508'> +2.9690250e+11 </wgt>
<wgt id='1509'> +3.0474061e+11 </wgt>
<wgt id='1510'> +3.0009483e+11 </wgt>
<wgt id='1511'> +3.0511419e+11 </wgt>
<wgt id='1512'> +3.0353405e+11 </wgt>
<wgt id='1513'> +3.0363918e+11 </wgt>
<wgt id='1514'> +3.0413813e+11 </wgt>
<wgt id='1515'> +3.0824384e+11 </wgt>
<wgt id='1516'> +3.0304469e+11 </wgt>
<wgt id='1517'> +3.0326090e+11 </wgt>
<wgt id='1518'> +3.0478757e+11 </wgt>
<wgt id='1519'> +3.0173573e+11 </wgt>
<wgt id='1520'> +3.0537494e+11 </wgt>
<wgt id='1521'> +3.0245103e+11 </wgt>
<wgt id='1522'> +3.0465579e+11 </wgt>
<wgt id='1523'> +3.0506016e+11 </wgt>
<wgt id='1524'> +3.0561726e+11 </wgt>
<wgt id='1525'> +3.0443219e+11 </wgt>
<wgt id='1526'> +3.0559699e+11 </wgt>
<wgt id='1527'> +3.0386716e+11 </wgt>
<wgt id='1528'> +3.0231912e+11 </wgt>
<wgt id='1529'> +3.0522513e+11 </wgt>
<wgt id='1530'> +2.9886217e+11 </wgt>
<wgt id='1531'> +3.0909449e+11 </wgt>
<wgt id='1532'> +3.0935067e+11 </wgt>
<wgt id='1533'> +3.0320799e+11 </wgt>
<wgt id='1534'> +3.0727495e+11 </wgt>
<wgt id='1535'> +3.1265213e+11 </wgt>
<wgt id='1536'> +3.0538772e+11 </wgt>
<wgt id='1537'> +3.1160794e+11 </wgt>
<wgt id='1538'> +3.0468901e+11 </wgt>
<wgt id='1539'> +3.1413525e+11 </wgt>
<wgt id='1540'> +3.1092063e+11 </wgt>
<wgt id='1541'> +3.1112495e+11 </wgt>
<wgt id='1542'> +3.0938782e+11 </wgt>
<wgt id='1543'> +3.1124947e+11 </wgt>
<wgt id='1544'> +3.0741278e+11 </wgt>
<wgt id='1545'> +3.0708991e+11 </wgt>
<wgt id='1546'> +3.0537850e+11 </wgt>
<wgt id='1547'> +3.1135264e+11 </wgt>
<wgt id='1548'> +3.0811148e+11 </wgt>
<wgt id='1549'> +3.0549850e+11 </wgt>
<wgt id='1550'> +3.1170621e+11 </wgt>
<wgt id='1551'> +3.0971231e+11 </wgt>
<wgt id='1552'> +3.0938893e+11 </wgt>
<wgt id='1553'> +3.1532108e+11 </wgt>
<wgt id='1554'> +3.0949356e+11 </wgt>
<wgt id='1555'> +3.1016482e+11 </wgt>
<wgt id='1556'> +3.1107528e+11 </wgt>
<wgt id='1557'> +3.0884495e+11 </wgt>
<wgt id='1558'> +3.0946255e+11 </wgt>
<wgt id='1559'> +3.0644564e+11 </wgt>
<wgt id='1560'> +3.0820180e+11 </wgt>
<wgt id='1561'> +3.0747394e+11 </wgt>
<wgt id='1562'> +3.0698213e+11 </wgt>
<wgt id='1563'> +3.0942953e+11 </wgt>
<wgt id='1564'> +3.0882889e+11 </wgt>
<wgt id='1565'> +3.1252999e+11 </wgt>
<wgt id='1566'> +3.0908419e+11 </wgt>
<wgt id='1567'> +3.0938419e+11 </wgt>
<wgt id='1568'> +3.0892089e+11 </wgt>
<wgt id='1569'> +3.0838003e+11 </wgt>
<wgt id='1570'> +3.1620370e+11 </wgt>
<wgt id='1571'> +3.0918199e+11 </wgt>
<wgt id='1572'> +3.1046485e+11 </wgt>
<wgt id='1573'> +3.1404313e+11 </wgt>
<wgt id='1574'> +2.5167068e+11 </wgt>
<wgt id='1575'> +2.5173573e+11 </wgt>
<wgt id='1576'> +2.5160160e+11 </wgt>
<wgt id='1577'> +2.5168854e+11 </wgt>
<wgt id='1578'> +2.5225082e+11 </wgt>
<wgt id='1579'> +2.5244305e+11 </wgt>
<wgt id='1580'> +2.5220658e+11 </wgt>
<wgt id='1581'> +2.5124874e+11 </wgt>
<wgt id='1582'> +2.5099295e+11 </wgt>
<wgt id='1583'> +2.5119578e+11 </wgt>
<wgt id='1584'> +2.5223348e+11 </wgt>
<wgt id='1585'> +2.5194912e+11 </wgt>
<wgt id='1586'> +2.5094379e+11 </wgt>
<wgt id='1587'> +2.5105976e+11 </wgt>
<wgt id='1588'> +2.5063652e+11 </wgt>
<wgt id='1589'> +2.5132073e+11 </wgt>
<wgt id='1590'> +2.5152713e+11 </wgt>
<wgt id='1591'> +2.5175370e+11 </wgt>
<wgt id='1592'> +2.5071345e+11 </wgt>
<wgt id='1593'> +2.5050707e+11 </wgt>
<wgt id='1594'> +2.5281334e+11 </wgt>
<wgt id='1595'> +2.4904283e+11 </wgt>
<wgt id='1596'> +2.5613482e+11 </wgt>
<wgt id='1597'> +2.5350498e+11 </wgt>
<wgt id='1598'> +2.5359075e+11 </wgt>
<wgt id='1599'> +2.4856513e+11 </wgt>
<wgt id='1600'> +2.5673854e+11 </wgt>
<wgt id='1601'> +2.5383544e+11 </wgt>
<wgt id='1602'> +2.5175281e+11 </wgt>
<wgt id='1603'> +2.6681929e+11 </wgt>
<wgt id='1604'> +2.5179653e+11 </wgt>
</rwgt>
</event>
<event>
 9      1 +2.8343000e+11 1.39999900e+03 7.81738600e-03 7.88881200e-02
       21 -1    0    0  504  503 +0.0000000000e+00 +0.0000000000e+00 +1.6297997501e+02 1.6297997501e+02 0.0000000000e+00 0.0000e+00 1.0000e+00
       21 -1    0    0  503  504 -0.0000000000e+00 -0.0000000000e+00 -3.0065018009e+03 3.0065018009e+03 0.0000000000e+00 0.0000e+00 1.0000e+00
       45  2    1    2    0    0 +0.0000000000e+00 +0.0000000000e+00 -2.8435218259e+03 3.1694817759e+03 1.3999994120e+03 0.0000e+00 0.0000e+00
       25  2    3    3    0    0 +3.5539234328e+02 +7.9497461373e+01 -2.7579747144e+03 2.7847213531e+03 1.2499969918e+02 0.0000e+00 0.0000e+00
       35  2    3    3    0    0 -3.5539234328e+02 -7.9497461373e+01 -8.5547111456e+01 3.8476042284e+02 8.9992836813e+01 0.0000e+00 0.0000e+00
        5  1    5    5  501    0 -3.1715170225e+02 -6.2755337055e+01 -1.0297120161e+02 3.3932913333e+02 4.2140000000e+00 0.0000e+00 1.0000e+00
       -5  1    5    5    0  501 -3.8240641027e+01 -1.6742124317e+01 +1.7424090149e+01 4.5431289508e+01 4.2140000000e+00 0.0000e+00 1.0000e+00
        5  1    4    4  502    0 +3.4968714414e+02 +7.2856389071e+01 -2.3834582267e+03 2.4100788428e+03 4.2140000000e+00 0.0000e+00 1.0000e+00
       -5  1    4    4    0  502 +5.7051991348e+00 +6.6410723013e+00 -3.7451648775e+02 3.7464251031e+02 4.2140000000e+00 0.0000e+00 1.0000e+00
<mgrwt>
<rscale>  0 0.13999994E+04</rscale>
<asrwt>0</asrwt>
<pdfrwt beam="1">  1       21 0.25073842E-01 0.13999994E+04</pdfrwt>
<pdfrwt beam="2">  1       21 0.46253874E+00 0.13999994E+04</pdfrwt>
<totfact> 0.28804281E+01</totfact>
</mgrwt>
<rwgt>
<wgt id='1001'> +2.8343000e+11 </wgt>
<wgt id='1002'> +3.2840688e+11 </wgt>
<wgt id='1003'> +3.2829901e+11 </wgt>
<wgt id='1004'> +3.8920656e+11 </wgt>
<wgt id='1005'> +2.8343000e+11 </wgt>
<wgt id='1006'> +2.8343000e+11 </wgt>
<wgt id='1007'> +3.2840688e+11 </wgt>
<wgt id='1008'> +3.2829901e+11 </wgt>
<wgt id='1009'> +3.8920656e+11 </wgt>
<wgt id='1010'> +2.8343000e+11 </wgt>
<wgt id='1011'> +2.8343000e+11 </wgt>
<wgt id='1012'> +3.2840688e+11 </wgt>
<wgt id='1013'> +3.2829901e+11 </wgt>
<wgt id='1014'> +3.8920656e+11 </wgt>
<wgt id='1015'> +2.8343000e+11 </wgt>
<wgt id='1016'> +2.4470586e+11 </wgt>
<wgt id='1017'> +2.8070372e+11 </wgt>
<wgt id='1018'> +2.8061744e+11 </wgt>
<wgt id='1019'> +3.2829901e+11 </wgt>
<wgt id='1020'> +2.4470586e+11 </wgt>
<wgt id='1021'> +2.4470586e+11 </wgt>
<wgt id='1022'> +2.8070372e+11 </wgt>
<wgt id='1023'> +2.8061744e+11 </wgt>
<wgt id='1024'> +3.2829901e+11 </wgt>
<wgt id='1025'> +2.4470586e+11 </wgt>
<wgt id='1026'> +2.4470586e+11 </wgt>
<wgt id='1027'> +2.8070372e+11 </wgt>
<wgt id='1028'> +2.8061744e+11 </wgt>
<wgt id='1029'> +3.2829901e+11 </wgt>
<wgt id='1030'> +2.4470586e+11 </wgt>
<wgt id='1031'> +3.3181461e+11 </wgt>
<wgt id='1032'> +3.8934491e+11 </wgt>
<wgt id='1033'> +3.8920656e+11 </wgt>
<wgt id='1034'> +4.6805156e+11 </wgt>
<wgt id='1035'> +3.3181461e+11 </wgt>
<wgt id='1036'> +3.3181461e+11 </wgt>
<wgt id='1037'> +3.8934491e+11 </wgt>
<wgt id='1038'> +3.8920656e+11 </wgt>
<wgt id='1039'> +4.6805156e+11 </wgt>
<wgt id='1040'> +3.3181461e+11 </wgt>
<wgt id='1041'> +3.3181461e+11 </wgt>
<wgt id='1042'> +3.8934491e+11 </wgt>
<wgt id='1043'> +3.8920656e+11 </wgt>
<wgt id='1044'> +4.6805156e+11 </wgt>
<wgt id='1045'> +3.3181461e+11 </wgt>
<wgt id='1046'> +2.8343000e+11 </wgt>
<wgt id='1047'> +2.8343000e+11 </wgt>
<wgt id='1048'> +2.8343000e+11 </wgt>
<wgt id='1049'> +2.7948188e+11 </wgt>
<wgt id='1050'> +2.7793084e+11 </wgt>
<wgt id='1051'> +2.8172851e+11 </wgt>
<wgt id='1052'> +2.8224212e+11 </wgt>
<wgt id='1053'> +2.8042225e+11 </wgt>
<wgt id='1054'> +2.8673416e+11 </wgt>
<wgt id='1055'> +2.8115657e+11 </wgt>
<wgt id='1056'> +2.7986264e+11 </wgt>
<wgt id='1057'> +2.8321030e+11 </wgt>
<wgt id='1058'> +2.8537725e+11 </wgt>
<wgt id='1059'> +2.8131643e+11 </wgt>
<wgt id='1060'> +2.8194979e+11 </wgt>
<wgt id='1061'> +2.8566189e+11 </wgt>
<wgt id='1062'> +2.8821903e+11 </wgt>
<wgt id='1063'> +2.8435937e+11 </wgt>
<wgt id='1064'> +2.9287606e+11 </wgt>
<wgt id='1065'> +2.8586397e+11 </wgt>
<wgt id='1066'> +2.8227587e+11 </wgt>
<wgt id='1067'> +2.9300068e+11 </wgt>
<wgt id='1068'> +2.8345307e+11 </wgt>
<wgt id='1069'> +2.7447229e+11 </wgt>
<wgt id='1070'> +2.7475417e+11 </wgt>
<wgt id='1071'> +2.8653438e+11 </wgt>
<wgt id='1072'> +2.7254247e+11 </wgt>
<wgt id='1073'> +2.8753884e+11 </wgt>
<wgt id='1074'> +2.8643880e+11 </wgt>
<wgt id='1075'> +2.8290762e+11 </wgt>
<wgt id='1076'> +2.8525551e+11 </wgt>
<wgt id='1077'> +2.8700986e+11 </wgt>
<wgt id='1078'> +2.6638518e+11 </wgt>
<wgt id='1079'> +2.8317004e+11 </wgt>
<wgt id='1080'> +2.9369007e+11 </wgt>
<wgt id='1081'> +2.8638230e+11 </wgt>
<wgt id='1082'> +2.8065182e+11 </wgt>
<wgt id='1083'> +2.7760288e+11 </wgt>
<wgt id='1084'> +2.9105622e+11 </wgt>
<wgt id='1085'> +2.8118871e+11 </wgt>
<wgt id='1086'> +2.8512874e+11 </wgt>
<wgt id='1087'> +2.8487293e+11 </wgt>
<wgt id='1088'> +2.8665304e+11 </wgt>
<wgt id='1089'> +2.8057870e+11 </wgt>
<wgt id='1090'> +2.8247473e+11 </wgt>
<wgt id='1091'> +2.8283407e+11 </wgt>
<wgt id='1092'> +2.7997227e+11 </wgt>
<wgt id='1093'> +2.7642597e+11 </wgt>
<wgt id='1094'> +2.8194697e+11 </wgt>
<wgt id='1095'> +2.8565020e+11 </wgt>
<wgt id='1096'> +2.8584320e+11 </wgt>
<wgt id='1097'> +2.8345290e+11 </wgt>
<wgt id='1098'> +2.8416096e+11 </wgt>
<wgt id='1099'> +2.8569601e+11 </wgt>
<wgt id='1100'> +2.8271012e+11 </wgt>
<wgt id='1101'> +2.8393785e+11 </wgt>
<wgt id='1102'> +2.8106106e+11 </wgt>
<wgt id='1103'> +2.7579892e+11 </wgt>
<wgt id='1104'> +2.8380012e+11 </wgt>
<wgt id='1105'> +2.8540995e+11 </wgt>
<wgt id='1106'> +2.8416730e+11 </wgt>
<wgt id='1107'> +2.8344105e+11 </wgt>
<wgt id='1108'> +2.8258133e+11 </wgt>
<wgt id='1109'> +2.8612712e+11 </wgt>
<wgt id='1110'> +2.8241286e+11 </wgt>
<wgt id='1111'> +2.8996713e+11 </wgt>
<wgt id='1112'> +2.7979041e+11 </wgt>
<wgt id='1113'> +2.8216395e+11 </wgt>
<wgt id='1114'> +2.8293290e+11 </wgt>
<wgt id='1115'> +2.7828082e+11 </wgt>
<wgt id='1116'> +2.8361797e+11 </wgt>
<wgt id='1117'> +2.8237492e+11 </wgt>
<wgt id='1118'> +2.8790152e+11 </wgt>
<wgt id='1119'> +2.8059734e+11 </wgt>
<wgt id='1120'> +2.7763712e+11 </wgt>
<wgt id='1121'> +2.8124376e+11 </wgt>
<wgt id='1122'> +2.8128284e+11 </wgt>
<wgt id='1123'> +2.8434642e+11 </wgt>
<wgt id='1124'> +2.8608541e+11 </wgt>
<wgt id='1125'> +2.8311114e+11 </wgt>
<wgt id='1126'> +2.8347511e+11 </wgt>
<wgt id='1127'> +2.8365303e+11 </wgt>
<wgt id='1128'> +2.8349544e+11 </wgt>
<wgt id='1129'> +2.8217225e+11 </wgt>
<wgt id='1130'> +2.8343200e+11 </wgt>
<wgt id='1131'> +2.8792911e+11 </wgt>
<wgt id='1132'> +2.8205323e+11 </wgt>
<wgt id='1133'> +2.8369122e+11 </wgt>
<wgt id='1134'> +2.8375563e+11 </wgt>
<wgt id='1135'> +2.8377315e+11 </wgt>
<wgt id='1136'> +2.8155624e+11 </wgt>
<wgt id='1137'> +2.8170834e+11 </wgt>
<wgt id='1138'> +2.8351911e+11 </wgt>
<wgt id='1139'> +2.8438330e+11 </wgt>
<wgt id='1140'> +2.8487271e+11 </wgt>
<wgt id='1141'> +2.8228115e+11 </wgt>
<wgt id='1142'> +2.8366408e+11 </wgt>
<wgt id='1143'> +2.8466919e+11 </wgt>
<wgt id='1144'> +2.8366472e+11 </wgt>
<wgt id='1145'> +2.8434395e+11 </wgt>
<wgt id='1146'> +2.8467166e+11 </wgt>
<wgt id='1147'> +2.8395579e+11 </wgt>
<wgt id='1148'> +2.8343000e+11 </wgt>
<wgt id='1149'> +2.8343000e+11 </wgt>
<wgt id='1150'> +2.9060663e+11 </wgt>
<wgt id='1151'> +3.0381256e+11 </wgt>
<wgt id='1152'> +3.2874873e+11 </wgt>
<wgt id='1153'> +3.1883979e+11 </wgt>
<wgt id='1154'> +2.2696175e+11 </wgt>
<wgt id='1155'> +3.1854370e+11 </wgt>
<wgt id='1156'> +2.9463585e+11 </wgt>
<wgt id='1157'> +3.2730238e+11 </wgt>
<wgt id='1158'> +3.4547904e+11 </wgt>
<wgt id='1159'> +3.1987326e+11 </wgt>
<wgt id='1160'> +2.5605923e+11 </wgt>
<wgt id='1161'> +3.0045935e+11 </wgt>
<wgt id='1162'> +2.5702760e+11 </wgt>
<wgt id='1163'> +2.5595909e+11 </wgt>
<wgt id='1164'> +2.0100672e+11 </wgt>
<wgt id='1165'> +3.0429048e+11 </wgt>
<wgt id='1166'> +2.7589517e+11 </wgt>
<wgt id='1167'> +2.7873856e+11 </wgt>
<wgt id='1168'> +2.1395326e+11 </wgt>
<wgt id='1169'> +2.1169636e+11 </wgt>
<wgt id='1170'> +3.1416593e+11 </wgt>
<wgt id='1171'> +2.2835675e+11 </wgt>
<wgt id='1172'> +2.5250751e+11 </wgt>
<wgt id='1173'> +2.8513250e+11 </wgt>
<wgt id='1174'> +2.9191392e+11 </wgt>
<wgt id='1175'> +3.2523176e+11 </wgt>
<wgt id='1176'> +3.2242139e+11 </wgt>
<wgt id='1177'> +3.5295607e+11 </wgt>
<wgt id='1178'> +2.7091449e+11 </wgt>
<wgt id='1179'> +3.0409483e+11 </wgt>
<wgt id='1180'> +3.2752736e+11 </wgt>
<wgt id='1181'> +2.1196972e+11 </wgt>
<wgt id='1182'> +2.4433491e+11 </wgt>
<wgt id='1183'> +3.0162225e+11 </wgt>
<wgt id='1184'> +3.0538623e+11 </wgt>
<wgt id='1185'> +2.5928322e+11 </wgt>
<wgt id='1186'> +2.6475504e+11 </wgt>
<wgt id='1187'> +3.1216854e+11 </wgt>
<wgt id='1188'> +3.4001956e+11 </wgt>
<wgt id='1189'> +3.4230461e+11 </wgt>
<wgt id='1190'> +3.5432031e+11 </wgt>
<wgt id='1191'> +3.3923999e+11 </wgt>
<wgt id='1192'> +2.8498797e+11 </wgt>
<wgt id='1193'> +3.2572990e+11 </wgt>
<wgt id='1194'> +2.8245761e+11 </wgt>
<wgt id='1195'> +2.4860906e+11 </wgt>
<wgt id='1196'> +2.4331387e+11 </wgt>
<wgt id='1197'> +2.6256233e+11 </wgt>
<wgt id='1198'> +2.8884583e+11 </wgt>
<wgt id='1199'> +3.0367381e+11 </wgt>
<wgt id='1200'> +2.8280624e+11 </wgt>
<wgt id='1201'> +3.1528820e+11 </wgt>
<wgt id='1202'> +2.8471443e+11 </wgt>
<wgt id='1203'> +2.4778470e+11 </wgt>
<wgt id='1204'> +1.9770103e+11 </wgt>
<wgt id='1205'> +3.2059367e+11 </wgt>
<wgt id='1206'> +2.6006896e+11 </wgt>
<wgt id='1207'> +2.8569752e+11 </wgt>
<wgt id='1208'> +3.0703844e+11 </wgt>
<wgt id='1209'> +2.2987290e+11 </wgt>
<wgt id='1210'> +3.2024325e+11 </wgt>
<wgt id='1211'> +3.2384960e+11 </wgt>
<wgt id='1212'> +2.3205350e+11 </wgt>
<wgt id='1213'> +2.7015553e+11 </wgt>
<wgt id='1214'> +2.7744097e+11 </wgt>
<wgt id='1215'> +2.5235355e+11 </wgt>
<wgt id='1216'> +2.8026252e+11 </wgt>
<wgt id='1217'> +2.4248244e+11 </wgt>
<wgt id='1218'> +2.3799451e+11 </wgt>
<wgt id='1219'> +2.6189901e+11 </wgt>
<wgt id='1220'> +2.4359499e+11 </wgt>
<wgt id='1221'> +2.4454740e+11 </wgt>
<wgt id='1222'> +2.4947602e+11 </wgt>
<wgt id='1223'> +3.2059968e+11 </wgt>
<wgt id='1224'> +2.7844250e+11 </wgt>
<wgt id='1225'> +2.1189124e+11 </wgt>
<wgt id='1226'> +2.4848705e+11 </wgt>
<wgt id='1227'> +3.3936973e+11 </wgt>
<wgt id='1228'> +2.2616400e+11 </wgt>
<wgt id='1229'> +2.7485652e+11 </wgt>
<wgt id='1230'> +2.6764888e+11 </wgt>
<wgt id='1231'> +3.0429048e+11 </wgt>
<wgt id='1232'> +2.5673006e+11 </wgt>
<wgt id='1233'> +2.7666837e+11 </wgt>
<wgt id='1234'> +3.2057643e+11 </wgt>
<wgt id='1235'> +3.0257343e+11 </wgt>
<wgt id='1236'> +3.4393260e+11 </wgt>
<wgt id='1237'> +3.0612207e+11 </wgt>
<wgt id='1238'> +2.9985876e+11 </wgt>
<wgt id='1239'> +3.2610038e+11 </wgt>
<wgt id='1240'> +3.4664945e+11 </wgt>
<wgt id='1241'> +2.1693623e+11 </wgt>
<wgt id='1242'> +3.1775664e+11 </wgt>
<wgt id='1243'> +2.2743863e+11 </wgt>
<wgt id='1244'> +2.9164843e+11 </wgt>
<wgt id='1245'> +3.2324258e+11 </wgt>
<wgt id='1246'> +3.2367118e+11 </wgt>
<wgt id='1247'> +2.4032518e+11 </wgt>
<wgt id='1248'> +2.7724354e+11 </wgt>
<wgt id='1249'> +2.8742305e+11 </wgt>
<wgt id='1250'> +2.8257577e+11 </wgt>
<wgt id='1251'> +3.2054954e+11 </wgt>
<wgt id='1252'> +2.7743321e+11 </wgt>
<wgt id='1253'> +3.0964691e+11 </wgt>
<wgt id='1254'> +2.9807842e+11 </wgt>
<wgt id='1255'> +2.8732001e+11 </wgt>
<wgt id='1256'> +3.5874333e+11 </wgt>
<wgt id='1257'> +2.3989603e+11 </wgt>
<wgt id='1258'> +3.3083009e+11 </wgt>
<wgt id='1259'> +3.6236823e+11 </wgt>
<wgt id='1260'> +4.7151569e+11 </wgt>
<wgt id='1261'> +4.9908322e+11 </wgt>
<wgt id='1262'> +3.3010656e+11 </wgt>
<wgt id='1263'> +2.9242144e+11 </wgt>
<wgt id='1264'> +2.9720190e+11 </wgt>
<wgt id='1265'> +2.2481205e+11 </wgt>
<wgt id='1266'> +2.6251629e+11 </wgt>
<wgt id='1267'> +5.4551279e+11 </wgt>
<wgt id='1268'> +1.2100478e+11 </wgt>
<wgt id='1269'> +2.3744639e+11 </wgt>
<wgt id='1270'> +3.8219455e+11 </wgt>
<wgt id='1271'> +9.2317813e+10 </wgt>
<wgt id='1272'> +3.0386357e+11 </wgt>
<wgt id='1273'> +2.8855345e+11 </wgt>
<wgt id='1274'> +3.2135545e+11 </wgt>
<wgt id='1275'> +3.0620682e+11 </wgt>
<wgt id='1276'> +3.2429328e+11 </wgt>
<wgt id='1277'> +4.5144404e+11 </wgt>
<wgt id='1278'> +3.2803135e+11 </wgt>
<wgt id='1279'> +2.5600286e+11 </wgt>
<wgt id='1280'> +3.8708165e+11 </wgt>
<wgt id='1281'> +2.7227039e+11 </wgt>
<wgt id='1282'> +2.8868646e+11 </wgt>
<wgt id='1283'> +3.7317818e+11 </wgt>
<wgt id='1284'> +2.6276994e+11 </wgt>
<wgt id='1285'> +2.4101529e+11 </wgt>
<wgt id='1286'> +3.9142945e+11 </wgt>
<wgt id='1287'> +4.5100804e+11 </wgt>
<wgt id='1288'> +5.1286280e+11 </wgt>
<wgt id='1289'> +3.9413312e+11 </wgt>
<wgt id='1290'> +3.5270498e+11 </wgt>
<wgt id='1291'> +3.0785965e+11 </wgt>
<wgt id='1292'> +3.3144305e+11 </wgt>
<wgt id='1293'> +3.0230021e+11 </wgt>
<wgt id='1294'> +5.2251570e+11 </wgt>
<wgt id='1295'> +3.7019018e+11 </wgt>
<wgt id='1296'> +5.0463203e+11 </wgt>
<wgt id='1297'> +2.6025248e+11 </wgt>
<wgt id='1298'> +2.8381307e+11 </wgt>
<wgt id='1299'> +2.9574775e+11 </wgt>
<wgt id='1300'> +2.1574779e+11 </wgt>
<wgt id='1301'> +1.7925109e+11 </wgt>
<wgt id='1302'> +2.4093692e+11 </wgt>
<wgt id='1303'> +2.7695850e+11 </wgt>
<wgt id='1304'> +4.2286058e+11 </wgt>
<wgt id='1305'> +3.0097984e+11 </wgt>
<wgt id='1306'> +3.0406063e+11 </wgt>
<wgt id='1307'> +2.4884253e+11 </wgt>
<wgt id='1308'> +3.8410966e+11 </wgt>
<wgt id='1309'> +3.1854572e+11 </wgt>
<wgt id='1310'> +2.8474408e+11 </wgt>
<wgt id='1311'> +2.5366621e+11 </wgt>
<wgt id='1312'> +4.0803223e+11 </wgt>
<wgt id='1313'> +3.8498957e+11 </wgt>
<wgt id='1314'> +2.1389891e+11 </wgt>
<wgt id='1315'> +2.4595461e+11 </wgt>
<wgt id='1316'> +2.9136263e+11 </wgt>
<wgt id='1317'> +5.0925188e+11 </wgt>
<wgt id='1318'> +2.7972173e+11 </wgt>
<wgt id='1319'> +2.3229511e+11 </wgt>
<wgt id='1320'> +3.6392616e+11 </wgt>
<wgt id='1321'> +3.5596159e+11 </wgt>
<wgt id='1322'> +2.9900096e+11 </wgt>
<wgt id='1323'> +2.3637150e+11 </wgt>
<wgt id='1324'> +3.5070915e+11 </wgt>
<wgt id='1325'> +3.4940909e+11 </wgt>
<wgt id='1326'> +4.1021368e+11 </wgt>
<wgt id='1327'> +3.8010901e+11 </wgt>
<wgt id='1328'> +2.8714406e+11 </wgt>
<wgt id='1329'> +2.1283309e+11 </wgt>
<wgt id='1330'> +2.3532061e+11 </wgt>
<wgt id='1331'> +3.6382239e+11 </wgt>
<wgt id='1332'> +3.6506381e+11 </wgt>
<wgt id='1333'> +3.3094690e+11 </wgt>
<wgt id='1334'> +3.4155159e+11 </wgt>
<wgt id='1335'> +2.2747877e+11 </wgt>
<wgt id='1336'> +4.9320349e+11 </wgt>
<wgt id='1337'> +3.2307370e+11 </wgt>
<wgt id='1338'> +2.5458645e+11 </wgt>
<wgt id='1339'> +2.7623413e+11 </wgt>
<wgt id='1340'> +4.0487864e+11 </wgt>
<wgt id='1341'> +4.5275227e+11 </wgt>
<wgt id='1342'> +2.6098764e+11 </wgt>
<wgt id='1343'> +3.6706342e+11 </wgt>
<wgt id='1344'> +3.7953772e+11 </wgt>
<wgt id='1345'> +1.2661162e+11 </wgt>
<wgt id='1346'> +2.7958768e+11 </wgt>
<wgt id='1347'> +2.8211642e+11 </wgt>
<wgt id='1348'> +2.2755790e+11 </wgt>
<wgt id='1349'> +2.1102140e+11 </wgt>
<wgt id='1350'> +4.0567109e+11 </wgt>
<wgt id='1351'> +2.8637158e+11 </wgt>
<wgt id='1352'> +3.3284339e+11 </wgt>
<wgt id='1353'> +3.4984053e+11 </wgt>
<wgt id='1354'> +3.1127519e+11 </wgt>
<wgt id='1355'> +2.5822549e+11 </wgt>
<wgt id='1356'> +2.8437744e+11 </wgt>
<wgt id='1357'> +2.4873430e+11 </wgt>
<wgt id='1358'> +2.3439072e+11 </wgt>
<wgt id='1359'> +2.7016940e+11 </wgt>
<wgt id='1360'> +2.4079093e+11 </wgt>
<wgt id='1361'> +2.5976605e+11 </wgt>
<wgt id='1362'> +2.6510891e+11 </wgt>
<wgt id='1363'> +2.3657135e+11 </wgt>
<wgt id='1364'> +2.7970072e+11 </wgt>
<wgt id='1365'> +2.4632643e+11 </wgt>
<wgt id='1366'> +2.7571978e+11 </wgt>
<wgt id='1367'> +2.5694207e+11 </wgt>
<wgt id='1368'> +2.9180763e+11 </wgt>
<wgt id='1369'> +2.5999667e+11 </wgt>
<wgt id='1370'> +2.3730317e+11 </wgt>
<wgt id='1371'> +2.3668100e+11 </wgt>
<wgt id='1372'> +2.4510332e+11 </wgt>
<wgt id='1373'> +2.9556690e+11 </wgt>
<wgt id='1374'> +2.2826842e+11 </wgt>
<wgt id='1375'> +2.6515711e+11 </wgt>
<wgt id='1376'> +2.4611883e+11 </wgt>
<wgt id='1377'> +2.6570427e+11 </wgt>
<wgt id='1378'> +2.5243597e+11 </wgt>
<wgt id='1379'> +2.4154002e+11 </wgt>
<wgt id='1380'> +2.3594967e+11 </wgt>
<wgt id='1381'> +2.7446101e+11 </wgt>
<wgt id='1382'> +2.2771761e+11 </wgt>
<wgt id='1383'> +2.4556989e+11 </wgt>
<wgt id='1384'> +2.2730139e+11 </wgt>
<wgt id='1385'> +2.5404313e+11 </wgt>
<wgt id='1386'> +2.6019291e+11 </wgt>
<wgt id='1387'> +2.8477388e+11 </wgt>
<wgt id='1388'> +2.6842873e+11 </wgt>
<wgt id='1389'> +2.3981126e+11 </wgt>
<wgt id='1390'> +2.5984306e+11 </wgt>
<wgt id='1391'> +2.9134179e+11 </wgt>
<wgt id='1392'> +2.3656352e+11 </wgt>
<wgt id='1393'> +2.7469251e+11 </wgt>
<wgt id='1394'> +2.7787949e+11 </wgt>
<wgt id='1395'> +2.1626438e+11 </wgt>
<wgt id='1396'> +2.4205127e+11 </wgt>
<wgt id='1397'> +2.5689464e+11 </wgt>
<wgt id='1398'> +3.0456198e+11 </wgt>
<wgt id='1399'> +2.2928130e+11 </wgt>
<wgt id='1400'> +2.6502126e+11 </wgt>
<wgt id='1401'> +2.2897113e+11 </wgt>
<wgt id='1402'> +2.6666697e+11 </wgt>
<wgt id='1403'> +2.5871648e+11 </wgt>
<wgt id='1404'> +2.4636317e+11 </wgt>
<wgt id='1405'> +3.1147260e+11 </wgt>
<wgt id='1406'> +2.7479111e+11 </wgt>
<wgt id='1407'> +2.9392838e+11 </wgt>
<wgt id='1408'> +2.8986346e+11 </wgt>
<wgt id='1409'> +2.7057209e+11 </wgt>
<wgt id='1410'> +2.7584650e+11 </wgt>
<wgt id='1411'> +2.5935427e+11 </wgt>
<wgt id='1412'> +3.0049087e+11 </wgt>
<wgt id='1413'> +2.6748549e+11 </wgt>
<wgt id='1414'> +2.7669490e+11 </wgt>
<wgt id='1415'> +2.5024115e+11 </wgt>
<wgt id='1416'> +2.6318714e+11 </wgt>
<wgt id='1417'> +2.2450109e+11 </wgt>
<wgt id='1418'> +2.4746480e+11 </wgt>
<wgt id='1419'> +2.6478971e+11 </wgt>
<wgt id='1420'> +2.4388946e+11 </wgt>
<wgt id='1421'> +2.7976623e+11 </wgt>
<wgt id='1422'> +2.2848687e+11 </wgt>
<wgt id='1423'> +2.5480345e+11 </wgt>
<wgt id='1424'> +2.4060225e+11 </wgt>
<wgt id='1425'> +2.5686038e+11 </wgt>
<wgt id='1426'> +2.7002955e+11 </wgt>
<wgt id='1427'> +2.4136307e+11 </wgt>
<wgt id='1428'> +2.3945309e+11 </wgt>
<wgt id='1429'> +2.4546104e+11 </wgt>
<wgt id='1430'> +2.3481762e+11 </wgt>
<wgt id='1431'> +2.3879564e+11 </wgt>
<wgt id='1432'> +2.4999939e+11 </wgt>
<wgt id='1433'> +2.6120178e+11 </wgt>
<wgt id='1434'> +2.3434956e+11 </wgt>
<wgt id='1435'> +2.8361464e+11 </wgt>
<wgt id='1436'> +2.4712516e+11 </wgt>
<wgt id='1437'> +2.7544833e+11 </wgt>
<wgt id='1438'> +2.5185004e+11 </wgt>
<wgt id='1439'> +2.4354367e+11 </wgt>
<wgt id='1440'> +2.7549153e+11 </wgt>
<wgt id='1441'> +2.5269392e+11 </wgt>
<wgt id='1442'> +2.6339856e+11 </wgt>
<wgt id='1443'> +2.3154038e+11 </wgt>
<wgt id='1444'> +2.6100358e+11 </wgt>
<wgt id='1445'> +2.4835308e+11 </wgt>
<wgt id='1446'> +2.9073658e+11 </wgt>
<wgt id='1447'> +2.9267978e+11 </wgt>
<wgt id='1448'> +2.6348253e+11 </wgt>
<wgt id='1449'> +2.5337134e+11 </wgt>
<wgt id='1450'> +2.4164949e+11 </wgt>
<wgt id='1451'> +2.3846398e+11 </wgt>
<wgt id='1452'> +2.8090044e+11 </wgt>
<wgt id='1453'> +2.7706392e+11 </wgt>
<wgt id='1454'> +2.4942109e+11 </wgt>
<wgt id='1455'> +2.7161854e+11 </wgt>
<wgt id='1456'> +2.5007951e+11 </wgt>
<wgt id='1457'> +2.6897747e+11 </wgt>
<wgt id='1458'> +2.6567590e+11 </wgt>
<wgt id='1459'> +2.8955679e+11 </wgt>
<wgt id='1460'> +2.8415033e+11 </wgt>
<wgt id='1461'> +3.6564949e+11 </wgt>
<wgt id='1462'> +3.9108760e+11 </wgt>
<wgt id='1463'> +3.9136916e+11 </wgt>
<wgt id='1464'> +3.9072643e+11 </wgt>
<wgt id='1465'> +3.9120596e+11 </wgt>
<wgt id='1466'> +3.9097948e+11 </wgt>
<wgt id='1467'> +3.9115496e+11 </wgt>
<wgt id='1468'> +3.9097705e+11 </wgt>
<wgt id='1469'> +3.9041727e+11 </wgt>
<wgt id='1470'> +3.9163188e+11 </wgt>
<wgt id='1471'> +3.9168069e+11 </wgt>
<wgt id='1472'> +3.9047666e+11 </wgt>
<wgt id='1473'> +3.9289036e+11 </wgt>
<wgt id='1474'> +3.8935512e+11 </wgt>
<wgt id='1475'> +3.9248527e+11 </wgt>
<wgt id='1476'> +3.9009824e+11 </wgt>
<wgt id='1477'> +3.9019891e+11 </wgt>
<wgt id='1478'> +3.9316400e+11 </wgt>
<wgt id='1479'> +3.8997129e+11 </wgt>
<wgt id='1480'> +3.9186651e+11 </wgt>
<wgt id='1481'> +3.8936113e+11 </wgt>
<wgt id='1482'> +3.9344506e+11 </wgt>
<wgt id='1483'> +3.9115388e+11 </wgt>
<wgt id='1484'> +3.9099264e+11 </wgt>
<wgt id='1485'> +3.9101202e+11 </wgt>
<wgt id='1486'> +3.9126418e+11 </wgt>
<wgt id='1487'> +3.9069647e+11 </wgt>
<wgt id='1488'> +3.9148579e+11 </wgt>
<wgt id='1489'> +3.9056747e+11 </wgt>
<wgt id='1490'> +3.9249866e+11 </wgt>
<wgt id='1491'> +3.9993783e+11 </wgt>
<wgt id='1492'> +3.8613561e+11 </wgt>
<wgt id='1493'> +3.8579228e+11 </wgt>
<wgt id='1494'> +4.0759877e+11 </wgt>
<wgt id='1495'> +3.8881835e+11 </wgt>
<wgt id='1496'> +3.9353773e+11 </wgt>
<wgt id='1497'> +3.9175626e+11 </wgt>
<wgt id='1498'> +3.9018299e+11 </wgt>
<wgt id='1499'> +3.9623449e+11 </wgt>
<wgt id='1500'> +3.8829995e+11 </wgt>
<wgt id='1501'> +3.8925912e+11 </wgt>
<wgt id='1502'> +3.9614144e+11 </wgt>
<wgt id='1503'> +3.7058336e+11 </wgt>
<wgt id='1504'> +4.1617462e+11 </wgt>
<wgt id='1505'> +3.8914676e+11 </wgt>
<wgt id='1506'> +3.9319691e+11 </wgt>
<wgt id='1507'> +4.1099995e+11 </wgt>
<wgt id='1508'> +3.5086296e+11 </wgt>
<wgt id='1509'> +3.9361480e+11 </wgt>
<wgt id='1510'> +3.8004789e+11 </wgt>
<wgt id='1511'> +3.8853312e+11 </wgt>
<wgt id='1512'> +3.9746646e+11 </wgt>
<wgt id='1513'> +3.8961920e+11 </wgt>
<wgt id='1514'> +3.9263073e+11 </wgt>
<wgt id='1515'> +4.2037935e+11 </wgt>
<wgt id='1516'> +3.7324148e+11 </wgt>
<wgt id='1517'> +3.8720345e+11 </wgt>
<wgt id='1518'> +3.9892660e+11 </wgt>
<wgt id='1519'> +3.8642046e+11 </wgt>
<wgt id='1520'> +3.9438560e+11 </wgt>
<wgt id='1521'> +3.8705996e+11 </wgt>
<wgt id='1522'> +3.9325416e+11 </wgt>
<wgt id='1523'> +4.0083080e+11 </wgt>
<wgt id='1524'> +3.8906709e+11 </wgt>
<wgt id='1525'> +3.9325171e+11 </wgt>
<wgt id='1526'> +3.9333578e+11 </wgt>
<wgt id='1527'> +3.9108760e+11 </wgt>
<wgt id='1528'> +3.7423633e+11 </wgt>
<wgt id='1529'> +4.0830582e+11 </wgt>
<wgt id='1530'> +3.2446207e+11 </wgt>
<wgt id='1531'> +4.1701883e+11 </wgt>
<wgt id='1532'> +4.3589682e+11 </wgt>
<wgt id='1533'> +4.1275327e+11 </wgt>
<wgt id='1534'> +4.0697143e+11 </wgt>
<wgt id='1535'> +4.2186353e+11 </wgt>
<wgt id='1536'> +3.9311909e+11 </wgt>
<wgt id='1537'> +4.3534535e+11 </wgt>
<wgt id='1538'> +4.0371403e+11 </wgt>
<wgt id='1539'> +4.3852613e+11 </wgt>
<wgt id='1540'> +4.3478667e+11 </wgt>
<wgt id='1541'> +4.2214405e+11 </wgt>
<wgt id='1542'> +4.2362569e+11 </wgt>
<wgt id='1543'> +4.3330519e+11 </wgt>
<wgt id='1544'> +4.0675009e+11 </wgt>
<wgt id='1545'> +4.1166882e+11 </wgt>
<wgt id='1546'> +4.1443122e+11 </wgt>
<wgt id='1547'> +4.1913998e+11 </wgt>
<wgt id='1548'> +4.1750155e+11 </wgt>
<wgt id='1549'> +4.1261838e+11 </wgt>
<wgt id='1550'> +4.1999984e+11 </wgt>
<wgt id='1551'> +4.2432092e+11 </wgt>
<wgt id='1552'> +4.1622926e+11 </wgt>
<wgt id='1553'> +4.2879449e+11 </wgt>
<wgt id='1554'> +4.2166423e+11 </wgt>
<wgt id='1555'> +4.1304171e+11 </wgt>
<wgt id='1556'> +4.2566666e+11 </wgt>
<wgt id='1557'> +4.1802541e+11 </wgt>
<wgt id='1558'> +4.1490243e+11 </wgt>
<wgt id='1559'> +4.1826550e+11 </wgt>
<wgt id='1560'> +4.2370324e+11 </wgt>
<wgt id='1561'> +4.1248694e+11 </wgt>
<wgt id='1562'> +4.0083091e+11 </wgt>
<wgt id='1563'> +4.1681631e+11 </wgt>
<wgt id='1564'> +4.1489091e+11 </wgt>
<wgt id='1565'> +4.3534280e+11 </wgt>
<wgt id='1566'> +4.1725304e+11 </wgt>
<wgt id='1567'> +4.0178533e+11 </wgt>
<wgt id='1568'> +4.1601074e+11 </wgt>
<wgt id='1569'> +4.1651847e+11 </wgt>
<wgt id='1570'> +4.2961492e+11 </wgt>
<wgt id='1571'> +4.1194049e+11 </wgt>
<wgt id='1572'> +4.0629334e+11 </wgt>
<wgt id='1573'> +4.4487597e+11 </wgt>
<wgt id='1574'> +2.0607333e+11 </wgt>
<wgt id='1575'> +2.0611855e+11 </wgt>
<wgt id='1576'> +2.0600156e+11 </wgt>
<wgt id='1577'> +2.0608837e+11 </wgt>
<wgt id='1578'> +2.0654141e+11 </wgt>
<wgt id='1579'> +2.0662109e+11 </wgt>
<wgt id='1580'> +2.0638067e+11 </wgt>
<wgt id='1581'> +2.0616244e+11 </wgt>
<wgt id='1582'> +2.0598444e+11 </wgt>
<wgt id='1583'> +2.0546973e+11 </wgt>
<wgt id='1584'> +2.0662883e+11 </wgt>
<wgt id='1585'> +2.0680365e+11 </wgt>
<wgt id='1586'> +2.0598221e+11 </wgt>
<wgt id='1587'> +2.0589602e+11 </wgt>
<wgt id='1588'> +2.0560269e+11 </wgt>
<wgt id='1589'> +2.0550778e+11 </wgt>
<wgt id='1590'> +2.0571032e+11 </wgt>
<wgt id='1591'> +2.0608943e+11 </wgt>
<wgt id='1592'> +2.0553489e+11 </wgt>
<wgt id='1593'> +2.0493759e+11 </wgt>
<wgt id='1594'> +2.0757799e+11 </wgt>
<wgt id='1595'> +2.0334153e+11 </wgt>
<wgt id='1596'> +2.1095185e+11 </wgt>
<wgt id='1597'> +2.0748838e+11 </wgt>
<wgt id='1598'> +2.0728216e+11 </wgt>
<wgt id='1599'> +2.0313192e+11 </wgt>
<wgt id='1600'> +2.1107110e+11 </wgt>
<wgt id='1601'> +2.0802210e+11 </wgt>
<wgt id='1602'> +2.0719886e+11 </wgt>
<wgt id='1603'> +2.2554851e+11 </wgt>
<wgt id='1604'> +2.0574805e+11 </wgt>
</rwgt>
</event>
<event>
 9      1 +2.8343000e+11 1.40000300e+03 7.81738600e-03 7.88881000e-02
       21 -1    0    0  504  503 +0.0000000000e+00 +0.0000000000e+00 +1.4583545020e+03 1.4583545020e+03 0.0000000000e+00 0.0000e+00 1.0000e+00
       21 -1    0    0  503  504 -0.0000000000e+00 -0.0000000000e+00 -3.3599670984e+02 3.3599670984e+02 0.0000000000e+00 0.0000e+00 1.0000e+00
       45  2    1    2    0    0 +0.0000000000e+00 -2.8421709430e-14 +1.1223577921e+03 1.7943512118e+03 1.4000033063e+03 0.0000e+00 0.0000e+00
       25  2    3    3    0    0 -4.5224525798e+02 -1.9319383754e+02 +1.1863618453e+03 1.2903212861e+03 1.2499984415e+02 0.0000e+00 0.0000e+00
       35  2    3    3    0    0 +4.5224525798e+02 +1.9319383754e+02 -6.4004053189e+01 5.0402992573e+02 9.0000083205e+01 0.0000e+00 0.0000e+00
        5  1    5    5  501    0 +1.7169290928e+02 +4.2532598631e+01 +9.4824214029e+00 1.7718676913e+02 4.2140000000e+00 0.0000e+00 1.0000e+00
       -5  1    5    5    0  501 +2.8055234869e+02 +1.5066123891e+02 -7.3486474592e+01 3.2684315659e+02 4.2140000000e+00 0.0000e+00 1.0000e+00
        5  1    4    4  502    0 -2.5488232959e+02 -1.3903265465e+02 +8.3032725372e+02 8.7963412113e+02 4.2140000000e+00 0.0000e+00 -1.0000e+00
       -5  1    4    4    0  502 -1.9736292839e+02 -5.4161182892e+01 +3.5603459158e+02 4.1068716492e+02 4.2140000000e+00 0.0000e+00 -1.0000e+00
<mgrwt>
<rscale>  0 0.14000033E+04</rscale>
<asrwt>0</asrwt>
<pdfrwt beam="1">  1       21 0.22436223E+00 0.14000033E+04</pdfrwt>
<pdfrwt beam="2">  1       21 0.51691802E-01 0.14000033E+04</pdfrwt>
<totfact> 0.21849609E+02</totfact>
</mgrwt>
<rwgt>
<wgt id='1001'> +2.8343000e+11 </wgt>
<wgt id='1002'> +3.0056182e+11 </wgt>
<wgt id='1003'> +3.0055860e+11 </wgt>
<wgt id='1004'> +3.4011361e+11 </wgt>
<wgt id='1005'> +2.8343000e+11 </wgt>
<wgt id='1006'> +2.8343000e+11 </wgt>
<wgt id='1007'> +3.0056182e+11 </wgt>
<wgt id='1008'> +3.0055860e+11 </wgt>
<wgt id='1009'> +3.4011361e+11 </wgt>
<wgt id='1010'> +2.8343000e+11 </wgt>
<wgt id='1011'> +2.8343000e+11 </wgt>
<wgt id='1012'> +3.0056182e+11 </wgt>
<wgt id='1013'> +3.0055860e+11 </wgt>
<wgt id='1014'> +3.4011361e+11 </wgt>
<wgt id='1015'> +2.8343000e+11 </wgt>
<wgt id='1016'> +2.5336072e+11 </wgt>
<wgt id='1017'> +2.6772050e+11 </wgt>
<wgt id='1018'> +2.6771781e+11 </wgt>
<wgt id='1019'> +3.0055860e+11 </wgt>
<wgt id='1020'> +2.5336072e+11 </wgt>
<wgt id='1021'> +2.5336072e+11 </wgt>
<wgt id='1022'> +2.6772050e+11 </wgt>
<wgt id='1023'> +2.6771781e+11 </wgt>
<wgt id='1024'> +3.0055860e+11 </wgt>
<wgt id='1025'> +2.5336072e+11 </wgt>
<wgt id='1026'> +2.5336072e+11 </wgt>
<wgt id='1027'> +2.6772050e+11 </wgt>
<wgt id='1028'> +2.6771781e+11 </wgt>
<wgt id='1029'> +3.0055860e+11 </wgt>
<wgt id='1030'> +2.5336072e+11 </wgt>
<wgt id='1031'> +3.1944050e+11 </wgt>
<wgt id='1032'> +3.4011750e+11 </wgt>
<wgt id='1033'> +3.4011361e+11 </wgt>
<wgt id='1034'> +3.8827979e+11 </wgt>
<wgt id='1035'> +3.1944050e+11 </wgt>
<wgt id='1036'> +3.1944050e+11 </wgt>
<wgt id='1037'> +3.4011750e+11 </wgt>
<wgt id='1038'> +3.4011361e+11 </wgt>
<wgt id='1039'> +3.8827979e+11 </wgt>
<wgt id='1040'> +3.1944050e+11 </wgt>
<wgt id='1041'> +3.1944050e+11 </wgt>
<wgt id='1042'> +3.4011750e+11 </wgt>
<wgt id='1043'> +3.4011361e+11 </wgt>
<wgt id='1044'> +3.8827979e+11 </wgt>
<wgt id='1045'> +3.1944050e+11 </wgt>
<wgt id='1046'> +2.8343000e+11 </wgt>
<wgt id='1047'> +2.8343000e+11 </wgt>
<wgt id='1048'> +2.8343000e+11 </wgt>
<wgt id='1049'> +2.8303318e+11 </wgt>
<wgt id='1050'> +2.8314982e+11 </wgt>
<wgt id='1051'> +2.8347230e+11 </wgt>
<wgt id='1052'> +2.8405076e+11 </wgt>
<wgt id='1053'> +2.8150549e+11 </wgt>
<wgt id='1054'> +2.8393811e+11 </wgt>
<wgt id='1055'> +2.8205196e+11 </wgt>
<wgt id='1056'> +2.8191981e+11 </wgt>
<wgt id='1057'> +2.8247443e+11 </wgt>
<wgt id='1058'> +2.8250430e+11 </wgt>
<wgt id='1059'> +2.8568857e+11 </wgt>
<wgt id='1060'> +2.8365839e+11 </wgt>
<wgt id='1061'> +2.8402681e+11 </wgt>
<wgt id='1062'> +2.8426199e+11 </wgt>
<wgt id='1063'> +2.8474514e+11 </wgt>
<wgt id='1064'> +2.8414450e+11 </wgt>
<wgt id='1065'> +2.8495887e+11 </wgt>
<wgt id='1066'> +2.8169591e+11 </wgt>
<wgt id='1067'> +2.8247310e+11 </wgt>
<wgt id='1068'> +2.8405843e+11 </wgt>
<wgt id='1069'> +2.8249578e+11 </wgt>
<wgt id='1070'> +2.8411249e+11 </wgt>
<wgt id='1071'> +2.8270831e+11 </wgt>
<wgt id='1072'> +2.8401111e+11 </wgt>
<wgt id='1073'> +2.8205414e+11 </wgt>
<wgt id='1074'> +2.8229810e+11 </wgt>
<wgt id='1075'> +2.8348548e+11 </wgt>
<wgt id='1076'> +2.8194566e+11 </wgt>
<wgt id='1077'> +2.8201731e+11 </wgt>
<wgt id='1078'> +2.8389962e+11 </wgt>
<wgt id='1079'> +2.8231709e+11 </wgt>
<wgt id='1080'> +2.8286115e+11 </wgt>
<wgt id='1081'> +2.8310960e+11 </wgt>
<wgt id='1082'> +2.8255091e+11 </wgt>
<wgt id='1083'> +2.8451083e+11 </wgt>
<wgt id='1084'> +2.8404396e+11 </wgt>
<wgt id='1085'> +2.8253401e+11 </wgt>
<wgt id='1086'> +2.8377922e+11 </wgt>
<wgt id='1087'> +2.8354359e+11 </wgt>
<wgt id='1088'> +2.8282635e+11 </wgt>
<wgt id='1089'> +2.8247855e+11 </wgt>
<wgt id='1090'> +2.8415742e+11 </wgt>
<wgt id='1091'> +2.8364603e+11 </wgt>
<wgt id='1092'> +2.8362753e+11 </wgt>
<wgt id='1093'> +2.8344814e+11 </wgt>
<wgt id='1094'> +2.8207145e+11 </wgt>
<wgt id='1095'> +2.8371880e+11 </wgt>
<wgt id='1096'> +2.8339980e+11 </wgt>
<wgt id='1097'> +2.8278763e+11 </wgt>
<wgt id='1098'> +2.8315195e+11 </wgt>
<wgt id='1099'> +2.8324224e+11 </wgt>
<wgt id='1100'> +2.8399605e+11 </wgt>
<wgt id='1101'> +2.8343727e+11 </wgt>
<wgt id='1102'> +2.8329708e+11 </wgt>
<wgt id='1103'> +2.8255871e+11 </wgt>
<wgt id='1104'> +2.8341168e+11 </wgt>
<wgt id='1105'> +2.8351354e+11 </wgt>
<wgt id='1106'> +2.8384707e+11 </wgt>
<wgt id='1107'> +2.8372816e+11 </wgt>
<wgt id='1108'> +2.8319770e+11 </wgt>
<wgt id='1109'> +2.8329908e+11 </wgt>
<wgt id='1110'> +2.8362309e+11 </wgt>
<wgt id='1111'> +2.8378382e+11 </wgt>
<wgt id='1112'> +2.8330669e+11 </wgt>
<wgt id='1113'> +2.8379775e+11 </wgt>
<wgt id='1114'> +2.8312740e+11 </wgt>
<wgt id='1115'> +2.8285433e+11 </wgt>
<wgt id='1116'> +2.8421396e+11 </wgt>
<wgt id='1117'> +2.8335048e+11 </wgt>
<wgt id='1118'> +2.8384201e+11 </wgt>
<wgt id='1119'> +2.8296856e+11 </wgt>
<wgt id='1120'> +2.8294082e+11 </wgt>
<wgt id='1121'> +2.8349239e+11 </wgt>
<wgt id='1122'> +2.8299343e+11 </wgt>
<wgt id='1123'> +2.8336185e+11 </wgt>
<wgt id='1124'> +2.8352386e+11 </wgt>
<wgt id='1125'> +2.8362122e+11 </wgt>
<wgt id='1126'> +2.8357228e+11 </wgt>
<wgt id='1127'> +2.8330153e+11 </wgt>
<wgt id='1128'> +2.8333522e+11 </wgt>
<wgt id='1129'> +2.8322498e+11 </wgt>
<wgt id='1130'> +2.8345768e+11 </wgt>
<wgt id='1131'> +2.8403233e+11 </wgt>
<wgt id='1132'> +2.8329568e+11 </wgt>
<wgt id='1133'> +2.8360210e+11 </wgt>
<wgt id='1134'> +2.8340236e+11 </wgt>
<wgt id='1135'> +2.8346337e+11 </wgt>
<wgt id='1136'> +2.8326939e+11 </wgt>
<wgt id='1137'> +2.8318164e+11 </wgt>
<wgt id='1138'> +2.8358268e+11 </wgt>
<wgt id='1139'> +2.8356927e+11 </wgt>
<wgt id='1140'> +2.8372827e+11 </wgt>
<wgt id='1141'> +2.8312961e+11 </wgt>
<wgt id='1142'> +2.8349534e+11 </wgt>
<wgt id='1143'> +2.8364558e+11 </wgt>
<wgt id='1144'> +2.8332410e+11 </wgt>
<wgt id='1145'> +2.8360940e+11 </wgt>
<wgt id='1146'> +2.8353169e+11 </wgt>
<wgt id='1147'> +2.8349607e+11 </wgt>
<wgt id='1148'> +2.8343000e+11 </wgt>
<wgt id='1149'> +2.8343000e+11 </wgt>
<wgt id='1150'> +2.9490403e+11 </wgt>
<wgt id='1151'> +2.7638009e+11 </wgt>
<wgt id='1152'> +2.7095770e+11 </wgt>
<wgt id='1153'> +2.8556377e+11 </wgt>
<wgt id='1154'> +2.7823914e+11 </wgt>
<wgt id='1155'> +2.9748314e+11 </wgt>
<wgt id='1156'> +2.8130394e+11 </wgt>
<wgt id='1157'> +2.7684388e+11 </wgt>
<wgt id='1158'> +2.7721794e+11 </wgt>
<wgt id='1159'> +2.9452766e+11 </wgt>
<wgt id='1160'> +2.8463502e+11 </wgt>
<wgt id='1161'> +2.9414556e+11 </wgt>
<wgt id='1162'> +2.8714132e+11 </wgt>
<wgt id='1163'> +2.8768114e+11 </wgt>
<wgt id='1164'> +2.7462815e+11 </wgt>
<wgt id='1165'> +2.7629500e+11 </wgt>
<wgt id='1166'> +2.8358051e+11 </wgt>
<wgt id='1167'> +2.7883615e+11 </wgt>
<wgt id='1168'> +2.7282681e+11 </wgt>
<wgt id='1169'> +2.7644009e+11 </wgt>
<wgt id='1170'> +2.8477317e+11 </wgt>
<wgt id='1171'> +2.7398890e+11 </wgt>
<wgt id='1172'> +2.7259358e+11 </wgt>
<wgt id='1173'> +2.8670292e+11 </wgt>
<wgt id='1174'> +2.7726689e+11 </wgt>
<wgt id='1175'> +2.7906172e+11 </wgt>
<wgt id='1176'> +2.8811082e+11 </wgt>
<wgt id='1177'> +2.8044812e+11 </wgt>
<wgt id='1178'> +2.8616388e+11 </wgt>
<wgt id='1179'> +2.8896858e+11 </wgt>
<wgt id='1180'> +2.7573942e+11 </wgt>
<wgt id='1181'> +2.9383494e+11 </wgt>
<wgt id='1182'> +2.8183834e+11 </wgt>
<wgt id='1183'> +2.8879771e+11 </wgt>
<wgt id='1184'> +2.7147868e+11 </wgt>
<wgt id='1185'> +2.9073379e+11 </wgt>
<wgt id='1186'> +2.7905861e+11 </wgt>
<wgt id='1187'> +2.8654089e+11 </wgt>
<wgt id='1188'> +2.9264331e+11 </wgt>
<wgt id='1189'> +2.8265925e+11 </wgt>
<wgt id='1190'> +2.8023944e+11 </wgt>
<wgt id='1191'> +2.9137221e+11 </wgt>
<wgt id='1192'> +2.8740801e+11 </wgt>
<wgt id='1193'> +2.8831512e+11 </wgt>
<wgt id='1194'> +2.7716911e+11 </wgt>
<wgt id='1195'> +2.8870917e+11 </wgt>
<wgt id='1196'> +2.9022507e+11 </wgt>
<wgt id='1197'> +2.9061633e+11 </wgt>
<wgt id='1198'> +2.8691101e+11 </wgt>
<wgt id='1199'> +2.8565995e+11 </wgt>
<wgt id='1200'> +2.9246104e+11 </wgt>
<wgt id='1201'> +2.8358792e+11 </wgt>
<wgt id='1202'> +2.8410851e+11 </wgt>
<wgt id='1203'> +2.8632173e+11 </wgt>
<wgt id='1204'> +2.7926577e+11 </wgt>
<wgt id='1205'> +2.8631921e+11 </wgt>
<wgt id='1206'> +2.8125976e+11 </wgt>
<wgt id='1207'> +2.9222265e+11 </wgt>
<wgt id='1208'> +2.7203851e+11 </wgt>
<wgt id='1209'> +2.8577611e+11 </wgt>
<wgt id='1210'> +2.8709758e+11 </wgt>
<wgt id='1211'> +2.7929382e+11 </wgt>
<wgt id='1212'> +2.8247249e+11 </wgt>
<wgt id='1213'> +2.8504571e+11 </wgt>
<wgt id='1214'> +2.7998667e+11 </wgt>
<wgt id='1215'> +2.7801317e+11 </wgt>
<wgt id='1216'> +2.7303777e+11 </wgt>
<wgt id='1217'> +2.8258361e+11 </wgt>
<wgt id='1218'> +2.8487262e+11 </wgt>
<wgt id='1219'> +2.9300832e+11 </wgt>
<wgt id='1220'> +2.8127117e+11 </wgt>
<wgt id='1221'> +2.7645977e+11 </wgt>
<wgt id='1222'> +2.7914308e+11 </wgt>
<wgt id='1223'> +2.7439834e+11 </wgt>
<wgt id='1224'> +2.8200777e+11 </wgt>
<wgt id='1225'> +2.7969633e+11 </wgt>
<wgt id='1226'> +2.8504579e+11 </wgt>
<wgt id='1227'> +2.8071335e+11 </wgt>
<wgt id='1228'> +2.8220140e+11 </wgt>
<wgt id='1229'> +2.9907404e+11 </wgt>
<wgt id='1230'> +2.8722274e+11 </wgt>
<wgt id='1231'> +2.7629500e+11 </wgt>
<wgt id='1232'> +2.8875509e+11 </wgt>
<wgt id='1233'> +2.7715990e+11 </wgt>
<wgt id='1234'> +2.7876156e+11 </wgt>
<wgt id='1235'> +3.0146200e+11 </wgt>
<wgt id='1236'> +2.8077518e+11 </wgt>
<wgt id='1237'> +2.9188431e+11 </wgt>
<wgt id='1238'> +2.7999425e+11 </wgt>
<wgt id='1239'> +2.8717088e+11 </wgt>
<wgt id='1240'> +2.7424782e+11 </wgt>
<wgt id='1241'> +2.9039111e+11 </wgt>
<wgt id='1242'> +2.8146209e+11 </wgt>
<wgt id='1243'> +2.8306100e+11 </wgt>
<wgt id='1244'> +2.9232165e+11 </wgt>
<wgt id='1245'> +2.7278179e+11 </wgt>
<wgt id='1246'> +3.0353737e+11 </wgt>
<wgt id='1247'> +2.8150618e+11 </wgt>
<wgt id='1248'> +2.7394336e+11 </wgt>
<wgt id='1249'> +2.7556818e+11 </wgt>
<wgt id='1250'> +2.9519065e+11 </wgt>
<wgt id='1251'> +3.0495269e+11 </wgt>
<wgt id='1252'> +2.8913391e+11 </wgt>
<wgt id='1253'> +2.9863200e+11 </wgt>
<wgt id='1254'> +2.9156169e+11 </wgt>
<wgt id='1255'> +3.0845870e+11 </wgt>
<wgt id='1256'> +3.0707751e+11 </wgt>
<wgt id='1257'> +3.0328510e+11 </wgt>
<wgt id='1258'> +2.9199060e+11 </wgt>
<wgt id='1259'> +3.1231927e+11 </wgt>
<wgt id='1260'> +3.3331322e+11 </wgt>
<wgt id='1261'> +3.1883811e+11 </wgt>
<wgt id='1262'> +2.9818483e+11 </wgt>
<wgt id='1263'> +3.0259595e+11 </wgt>
<wgt id='1264'> +3.0454045e+11 </wgt>
<wgt id='1265'> +2.9161157e+11 </wgt>
<wgt id='1266'> +3.0740337e+11 </wgt>
<wgt id='1267'> +3.6269887e+11 </wgt>
<wgt id='1268'> +2.8796589e+11 </wgt>
<wgt id='1269'> +2.8687015e+11 </wgt>
<wgt id='1270'> +3.1204809e+11 </wgt>
<wgt id='1271'> +2.6293856e+11 </wgt>
<wgt id='1272'> +2.9591565e+11 </wgt>
<wgt id='1273'> +2.9203570e+11 </wgt>
<wgt id='1274'> +2.8883560e+11 </wgt>
<wgt id='1275'> +2.9234996e+11 </wgt>
<wgt id='1276'> +3.0896828e+11 </wgt>
<wgt id='1277'> +3.0482723e+11 </wgt>
<wgt id='1278'> +3.0374084e+11 </wgt>
<wgt id='1279'> +2.7919973e+11 </wgt>
<wgt id='1280'> +2.8742373e+11 </wgt>
<wgt id='1281'> +2.8617986e+11 </wgt>
<wgt id='1282'> +2.9485259e+11 </wgt>
<wgt id='1283'> +3.1918222e+11 </wgt>
<wgt id='1284'> +3.0547183e+11 </wgt>
<wgt id='1285'> +3.0811322e+11 </wgt>
<wgt id='1286'> +3.3555534e+11 </wgt>
<wgt id='1287'> +3.2138631e+11 </wgt>
<wgt id='1288'> +3.4675842e+11 </wgt>
<wgt id='1289'> +3.1985925e+11 </wgt>
<wgt id='1290'> +3.1485529e+11 </wgt>
<wgt id='1291'> +2.8033755e+11 </wgt>
<wgt id='1292'> +3.0738861e+11 </wgt>
<wgt id='1293'> +3.0517913e+11 </wgt>
<wgt id='1294'> +3.3385830e+11 </wgt>
<wgt id='1295'> +3.1410824e+11 </wgt>
<wgt id='1296'> +3.4076420e+11 </wgt>
<wgt id='1297'> +2.8810040e+11 </wgt>
<wgt id='1298'> +2.9168793e+11 </wgt>
<wgt id='1299'> +3.0762901e+11 </wgt>
<wgt id='1300'> +2.7596754e+11 </wgt>
<wgt id='1301'> +2.8073261e+11 </wgt>
<wgt id='1302'> +2.8160127e+11 </wgt>
<wgt id='1303'> +3.0827554e+11 </wgt>
<wgt id='1304'> +3.3806157e+11 </wgt>
<wgt id='1305'> +2.9845088e+11 </wgt>
<wgt id='1306'> +3.0738462e+11 </wgt>
<wgt id='1307'> +2.8136855e+11 </wgt>
<wgt id='1308'> +3.3555031e+11 </wgt>
<wgt id='1309'> +3.0548059e+11 </wgt>
<wgt id='1310'> +3.0597571e+11 </wgt>
<wgt id='1311'> +2.9477549e+11 </wgt>
<wgt id='1312'> +3.2637605e+11 </wgt>
<wgt id='1313'> +3.0987870e+11 </wgt>
<wgt id='1314'> +2.8898603e+11 </wgt>
<wgt id='1315'> +2.8892174e+11 </wgt>
<wgt id='1316'> +3.0090713e+11 </wgt>
<wgt id='1317'> +3.2248690e+11 </wgt>
<wgt id='1318'> +2.9270426e+11 </wgt>
<wgt id='1319'> +2.9934145e+11 </wgt>
<wgt id='1320'> +3.2261388e+11 </wgt>
<wgt id='1321'> +3.0875801e+11 </wgt>
<wgt id='1322'> +3.2152683e+11 </wgt>
<wgt id='1323'> +2.8340957e+11 </wgt>
<wgt id='1324'> +3.1519776e+11 </wgt>
<wgt id='1325'> +3.1552299e+11 </wgt>
<wgt id='1326'> +3.1293130e+11 </wgt>
<wgt id='1327'> +3.2198495e+11 </wgt>
<wgt id='1328'> +3.0197609e+11 </wgt>
<wgt id='1329'> +2.9789675e+11 </wgt>
<wgt id='1330'> +2.8274421e+11 </wgt>
<wgt id='1331'> +3.2679642e+11 </wgt>
<wgt id='1332'> +3.0545355e+11 </wgt>
<wgt id='1333'> +3.0346578e+11 </wgt>
<wgt id='1334'> +3.2447548e+11 </wgt>
<wgt id='1335'> +2.9062041e+11 </wgt>
<wgt id='1336'> +3.2608881e+11 </wgt>
<wgt id='1337'> +3.1120442e+11 </wgt>
<wgt id='1338'> +2.8607058e+11 </wgt>
<wgt id='1339'> +3.1115294e+11 </wgt>
<wgt id='1340'> +3.1890464e+11 </wgt>
<wgt id='1341'> +3.3976996e+11 </wgt>
<wgt id='1342'> +2.9697592e+11 </wgt>
<wgt id='1343'> +3.1011446e+11 </wgt>
<wgt id='1344'> +3.2413578e+11 </wgt>
<wgt id='1345'> +2.5431093e+11 </wgt>
<wgt id='1346'> +3.0733730e+11 </wgt>
<wgt id='1347'> +2.9828464e+11 </wgt>
<wgt id='1348'> +2.9255834e+11 </wgt>
<wgt id='1349'> +2.9041401e+11 </wgt>
<wgt id='1350'> +3.1895832e+11 </wgt>
<wgt id='1351'> +2.8970317e+11 </wgt>
<wgt id='1352'> +3.0709292e+11 </wgt>
<wgt id='1353'> +3.0511005e+11 </wgt>
<wgt id='1354'> +3.1373527e+11 </wgt>
<wgt id='1355'> +2.8154216e+11 </wgt>
<wgt id='1356'> +2.8401060e+11 </wgt>
<wgt id='1357'> +2.8264094e+11 </wgt>
<wgt id='1358'> +2.8023673e+11 </wgt>
<wgt id='1359'> +2.7978744e+11 </wgt>
<wgt id='1360'> +2.7708337e+11 </wgt>
<wgt id='1361'> +2.7983070e+11 </wgt>
<wgt id='1362'> +2.9058649e+11 </wgt>
<wgt id='1363'> +2.8130802e+11 </wgt>
<wgt id='1364'> +2.8850937e+11 </wgt>
<wgt id='1365'> +2.7944585e+11 </wgt>
<wgt id='1366'> +2.7753295e+11 </wgt>
<wgt id='1367'> +2.7969710e+11 </wgt>
<wgt id='1368'> +2.8287636e+11 </wgt>
<wgt id='1369'> +2.8507203e+11 </wgt>
<wgt id='1370'> +2.7640946e+11 </wgt>
<wgt id='1371'> +2.8117120e+11 </wgt>
<wgt id='1372'> +2.8038579e+11 </wgt>
<wgt id='1373'> +2.8549231e+11 </wgt>
<wgt id='1374'> +2.7639516e+11 </wgt>
<wgt id='1375'> +2.8350533e+11 </wgt>
<wgt id='1376'> +2.8058755e+11 </wgt>
<wgt id='1377'> +2.8151659e+11 </wgt>
<wgt id='1378'> +2.8389521e+11 </wgt>
<wgt id='1379'> +2.7973529e+11 </wgt>
<wgt id='1380'> +2.7895802e+11 </wgt>
<wgt id='1381'> +2.8542773e+11 </wgt>
<wgt id='1382'> +2.7947324e+11 </wgt>
<wgt id='1383'> +2.7814338e+11 </wgt>
<wgt id='1384'> +2.7569742e+11 </wgt>
<wgt id='1385'> +2.7566564e+11 </wgt>
<wgt id='1386'> +2.7813246e+11 </wgt>
<wgt id='1387'> +2.7984722e+11 </wgt>
<wgt id='1388'> +2.7718551e+11 </wgt>
<wgt id='1389'> +2.7937504e+11 </wgt>
<wgt id='1390'> +2.8486289e+11 </wgt>
<wgt id='1391'> +2.8204481e+11 </wgt>
<wgt id='1392'> +2.7615647e+11 </wgt>
<wgt id='1393'> +2.8394378e+11 </wgt>
<wgt id='1394'> +2.8165816e+11 </wgt>
<wgt id='1395'> +2.7588778e+11 </wgt>
<wgt id='1396'> +2.8177224e+11 </wgt>
<wgt id='1397'> +2.8171671e+11 </wgt>
<wgt id='1398'> +2.8707886e+11 </wgt>
<wgt id='1399'> +2.7992450e+11 </wgt>
<wgt id='1400'> +2.7558554e+11 </wgt>
<wgt id='1401'> +2.8233690e+11 </wgt>
<wgt id='1402'> +2.8368589e+11 </wgt>
<wgt id='1403'> +2.9228536e+11 </wgt>
<wgt id='1404'> +2.8606638e+11 </wgt>
<wgt id='1405'> +2.8993804e+11 </wgt>
<wgt id='1406'> +2.8612260e+11 </wgt>
<wgt id='1407'> +2.8327846e+11 </wgt>
<wgt id='1408'> +2.9059733e+11 </wgt>
<wgt id='1409'> +2.7554604e+11 </wgt>
<wgt id='1410'> +2.7340996e+11 </wgt>
<wgt id='1411'> +2.8123946e+11 </wgt>
<wgt id='1412'> +2.8194114e+11 </wgt>
<wgt id='1413'> +2.8622201e+11 </wgt>
<wgt id='1414'> +2.8409772e+11 </wgt>
<wgt id='1415'> +2.7911801e+11 </wgt>
<wgt id='1416'> +2.8209332e+11 </wgt>
<wgt id='1417'> +2.7966337e+11 </wgt>
<wgt id='1418'> +2.7986592e+11 </wgt>
<wgt id='1419'> +2.8451974e+11 </wgt>
<wgt id='1420'> +2.7454283e+11 </wgt>
<wgt id='1421'> +2.8878849e+11 </wgt>
<wgt id='1422'> +2.7385305e+11 </wgt>
<wgt id='1423'> +2.8482580e+11 </wgt>
<wgt id='1424'> +2.8121659e+11 </wgt>
<wgt id='1425'> +2.8159226e+11 </wgt>
<wgt id='1426'> +2.8419343e+11 </wgt>
<wgt id='1427'> +2.7938125e+11 </wgt>
<wgt id='1428'> +2.7903560e+11 </wgt>
<wgt id='1429'> +2.8287693e+11 </wgt>
<wgt id='1430'> +2.7831556e+11 </wgt>
<wgt id='1431'> +2.7918100e+11 </wgt>
<wgt id='1432'> +2.7648595e+11 </wgt>
<wgt id='1433'> +2.7543321e+11 </wgt>
<wgt id='1434'> +2.8776819e+11 </wgt>
<wgt id='1435'> +2.8125246e+11 </wgt>
<wgt id='1436'> +2.8556802e+11 </wgt>
<wgt id='1437'> +2.7946141e+11 </wgt>
<wgt id='1438'> +2.8143895e+11 </wgt>
<wgt id='1439'> +2.8940424e+11 </wgt>
<wgt id='1440'> +2.8157142e+11 </wgt>
<wgt id='1441'> +2.7705089e+11 </wgt>
<wgt id='1442'> +2.8327713e+11 </wgt>
<wgt id='1443'> +2.7717400e+11 </wgt>
<wgt id='1444'> +2.8913924e+11 </wgt>
<wgt id='1445'> +2.7973349e+11 </wgt>
<wgt id='1446'> +2.9136019e+11 </wgt>
<wgt id='1447'> +2.8221233e+11 </wgt>
<wgt id='1448'> +2.8432090e+11 </wgt>
<wgt id='1449'> +2.8455211e+11 </wgt>
<wgt id='1450'> +2.8063128e+11 </wgt>
<wgt id='1451'> +2.8093516e+11 </wgt>
<wgt id='1452'> +2.8382673e+11 </wgt>
<wgt id='1453'> +2.8347903e+11 </wgt>
<wgt id='1454'> +2.7228471e+11 </wgt>
<wgt id='1455'> +2.7984964e+11 </wgt>
<wgt id='1456'> +2.7966020e+11 </wgt>
<wgt id='1457'> +2.8157983e+11 </wgt>
<wgt id='1458'> +2.8909493e+11 </wgt>
<wgt id='1459'> +3.1413361e+11 </wgt>
<wgt id='1460'> +3.0873697e+11 </wgt>
<wgt id='1461'> +3.7117757e+11 </wgt>
<wgt id='1462'> +3.0264706e+11 </wgt>
<wgt id='1463'> +3.0286379e+11 </wgt>
<wgt id='1464'> +3.0236909e+11 </wgt>
<wgt id='1465'> +3.0271606e+11 </wgt>
<wgt id='1466'> +3.0258401e+11 </wgt>
<wgt id='1467'> +3.0275296e+11 </wgt>
<wgt id='1468'> +3.0247327e+11 </wgt>
<wgt id='1469'> +3.0221627e+11 </wgt>
<wgt id='1470'> +3.0299690e+11 </wgt>
<wgt id='1471'> +3.0309239e+11 </wgt>
<wgt id='1472'> +3.0218832e+11 </wgt>
<wgt id='1473'> +3.0386000e+11 </wgt>
<wgt id='1474'> +3.0148198e+11 </wgt>
<wgt id='1475'> +3.0379340e+11 </wgt>
<wgt id='1476'> +3.0183448e+11 </wgt>
<wgt id='1477'> +3.0210264e+11 </wgt>
<wgt id='1478'> +3.0391912e+11 </wgt>
<wgt id='1479'> +3.0236105e+11 </wgt>
<wgt id='1480'> +3.0285249e+11 </wgt>
<wgt id='1481'> +3.0204856e+11 </wgt>
<wgt id='1482'> +3.0345735e+11 </wgt>
<wgt id='1483'> +3.0269587e+11 </wgt>
<wgt id='1484'> +3.0258267e+11 </wgt>
<wgt id='1485'> +3.0285620e+11 </wgt>
<wgt id='1486'> +3.0214323e+11 </wgt>
<wgt id='1487'> +3.0293477e+11 </wgt>
<wgt id='1488'> +3.0228775e+11 </wgt>
<wgt id='1489'> +3.0226471e+11 </wgt>
<wgt id='1490'> +3.0368406e+11 </wgt>
<wgt id='1491'> +3.0775006e+11 </wgt>
<wgt id='1492'> +2.9980485e+11 </wgt>
<wgt id='1493'> +2.9892146e+11 </wgt>
<wgt id='1494'> +3.1433358e+11 </wgt>
<wgt id='1495'> +3.0176713e+11 </wgt>
<wgt id='1496'> +3.0359232e+11 </wgt>
<wgt id='1497'> +3.0286412e+11 </wgt>
<wgt id='1498'> +3.0235081e+11 </wgt>
<wgt id='1499'> +3.0481162e+11 </wgt>
<wgt id='1500'> +3.0146583e+11 </wgt>
<wgt id='1501'> +3.0295624e+11 </wgt>
<wgt id='1502'> +3.0183761e+11 </wgt>
<wgt id='1503'> +2.9807033e+11 </wgt>
<wgt id='1504'> +3.0780408e+11 </wgt>
<wgt id='1505'> +3.0325992e+11 </wgt>
<wgt id='1506'> +3.0203967e+11 </wgt>
<wgt id='1507'> +3.0639311e+11 </wgt>
<wgt id='1508'> +2.9647477e+11 </wgt>
<wgt id='1509'> +3.0348086e+11 </wgt>
<wgt id='1510'> +2.9904843e+11 </wgt>
<wgt id='1511'> +3.0388974e+11 </wgt>
<wgt id='1512'> +3.0229548e+11 </wgt>
<wgt id='1513'> +3.0244461e+11 </wgt>
<wgt id='1514'> +3.0288834e+11 </wgt>
<wgt id='1515'> +3.0673604e+11 </wgt>
<wgt id='1516'> +3.0201057e+11 </wgt>
<wgt id='1517'> +3.0207712e+11 </wgt>
<wgt id='1518'> +3.0347482e+11 </wgt>
<wgt id='1519'> +3.0057836e+11 </wgt>
<wgt id='1520'> +3.0411124e+11 </wgt>
<wgt id='1521'> +3.0131492e+11 </wgt>
<wgt id='1522'> +3.0339289e+11 </wgt>
<wgt id='1523'> +3.0383316e+11 </wgt>
<wgt id='1524'> +3.0436126e+11 </wgt>
<wgt id='1525'> +3.0328360e+11 </wgt>
<wgt id='1526'> +3.0426468e+11 </wgt>
<wgt id='1527'> +3.0264706e+11 </wgt>
<wgt id='1528'> +3.0129742e+11 </wgt>
<wgt id='1529'> +3.0376279e+11 </wgt>
<wgt id='1530'> +2.9805044e+11 </wgt>
<wgt id='1531'> +3.0704606e+11 </wgt>
<wgt id='1532'> +3.0691395e+11 </wgt>
<wgt id='1533'> +3.0130845e+11 </wgt>
<wgt id='1534'> +3.0530957e+11 </wgt>
<wgt id='1535'> +3.1046719e+11 </wgt>
<wgt id='1536'> +3.0355456e+11 </wgt>
<wgt id='1537'> +3.0915760e+11 </wgt>
<wgt id='1538'> +3.0282007e+11 </wgt>
<wgt id='1539'> +3.1211733e+11 </wgt>
<wgt id='1540'> +3.0855644e+11 </wgt>
<wgt id='1541'> +3.0890460e+11 </wgt>
<wgt id='1542'> +3.0726526e+11 </wgt>
<wgt id='1543'> +3.0904386e+11 </wgt>
<wgt id='1544'> +3.0537967e+11 </wgt>
<wgt id='1545'> +3.0502836e+11 </wgt>
<wgt id='1546'> +3.0329690e+11 </wgt>
<wgt id='1547'> +3.0931987e+11 </wgt>
<wgt id='1548'> +3.0595246e+11 </wgt>
<wgt id='1549'> +3.0347169e+11 </wgt>
<wgt id='1550'> +3.0944762e+11 </wgt>
<wgt id='1551'> +3.0766092e+11 </wgt>
<wgt id='1552'> +3.0725215e+11 </wgt>
<wgt id='1553'> +3.1261238e+11 </wgt>
<wgt id='1554'> +3.0736659e+11 </wgt>
<wgt id='1555'> +3.0808860e+11 </wgt>
<wgt id='1556'> +3.0905000e+11 </wgt>
<wgt id='1557'> +3.0673829e+11 </wgt>
<wgt id='1558'> +3.0741848e+11 </wgt>
<wgt id='1559'> +3.0438674e+11 </wgt>
<wgt id='1560'> +3.0605228e+11 </wgt>
<wgt id='1561'> +3.0523972e+11 </wgt>
<wgt id='1562'> +3.0509355e+11 </wgt>
<wgt id='1563'> +3.0735296e+11 </wgt>
<wgt id='1564'> +3.0677674e+11 </wgt>
<wgt id='1565'> +3.1024929e+11 </wgt>
<wgt id='1566'> +3.0703924e+11 </wgt>
<wgt id='1567'> +3.0779756e+11 </wgt>
<wgt id='1568'> +3.0688276e+11 </wgt>
<wgt id='1569'> +3.0636532e+11 </wgt>
<wgt id='1570'> +3.1398867e+11 </wgt>
<wgt id='1571'> +3.0713842e+11 </wgt>
<wgt id='1572'> +3.0859861e+11 </wgt>
<wgt id='1573'> +3.1169577e+11 </wgt>
<wgt id='1574'> +2.5244403e+11 </wgt>
<wgt id='1575'> +2.5250965e+11 </wgt>
<wgt id='1576'> +2.5237524e+11 </wgt>
<wgt id='1577'> +2.5246191e+11 </wgt>
<wgt id='1578'> +2.5302616e+11 </wgt>
<wgt id='1579'> +2.5322454e+11 </wgt>
<wgt id='1580'> +2.5298900e+11 </wgt>
<wgt id='1581'> +2.5200209e+11 </wgt>
<wgt id='1582'> +2.5174190e+11 </wgt>
<wgt id='1583'> +2.5197574e+11 </wgt>
<wgt id='1584'> +2.5300627e+11 </wgt>
<wgt id='1585'> +2.5271061e+11 </wgt>
<wgt id='1586'> +2.5168969e+11 </wgt>
<wgt id='1587'> +2.5181767e+11 </wgt>
<wgt id='1588'> +2.5138804e+11 </wgt>
<wgt id='1589'> +2.5210582e+11 </wgt>
<wgt id='1590'> +2.5229808e+11 </wgt>
<wgt id='1591'> +2.5252656e+11 </wgt>
<wgt id='1592'> +2.5147961e+11 </wgt>
<wgt id='1593'> +2.5130675e+11 </wgt>
<wgt id='1594'> +2.5355632e+11 </wgt>
<wgt id='1595'> +2.4984985e+11 </wgt>
<wgt id='1596'> +2.5683201e+11 </wgt>
<wgt id='1597'> +2.5427398e+11 </wgt>
<wgt id='1598'> +2.5437403e+11 </wgt>
<wgt id='1599'> +2.4936974e+11 </wgt>
<wgt id='1600'> +2.5745890e+11 </wgt>
<wgt id='1601'> +2.5460762e+11 </wgt>
<wgt id='1602'> +2.5251292e+11 </wgt>
<wgt id='1603'> +2.6715849e+11 </wgt>
<wgt id='1604'> +2.5261482e+11 </wgt>
</rwgt>
</event>
<event>
 9      1 +2.8343000e+11 1.40000000e+03 7.81738600e-03 7.88881100e-02
       21 -1    0    0  504  503 +0.0000000000e+00 +0.0000000000e+00 +9.0636151382e+02 9.0636151382e+02 0.0000000000e+00 0.0000e+00 1.0000e+00
       21 -1    0    0  503  504 -0.0000000000e+00 -0.0000000000e+00 -5.4062338426e+02 5.4062338426e+02 0.0000000000e+00 0.0000e+00 1.0000e+00
       45  2    1    2    0    0 +0.0000000000e+00 +0.0000000000e+00 +3.6573812957e+02 1.4469848981e+03 1.4000003271e+03 0.0000e+00 0.0000e+00
       25  2    3    3    0    0 -1.9566733389e+02 +3.1974520247e+02 +7.8412586222e+02 8.7806380243e+02 1.2497989152e+02 0.0000e+00 0.0000e+00
       35  2    3    3    0    0 +1.9566733389e+02 -3.1974520247e+02 -4.1838773265e+02 5.6892109565e+02 9.0001212134e+01 0.0000e+00 0.0000e+00
        5  1    5    5  501    0 +5.6060861791e+01 -1.3236472089e+02 -1.0536373815e+02 1.7827651184e+02 4.2140000000e+00 0.0000e+00 -1.0000e+00
       -5  1    5    5    0  501 +1.3960647210e+02 -1.8738048158e+02 -3.1302399450e+02 3.9064458381e+02 4.2140000000e+00 0.0000e+00 -1.0000e+00
        5  1    4    4  502    0 -1.6272435256e+02 +1.5317320165e+02 +4.8634418478e+02 5.3524729657e+02 4.2140000000e+00 0.0000e+00 -1.0000e+00
       -5  1    4    4    0  502 -3.2942981325e+01 +1.6657200082e+02 +2.9778167744e+02 3.4281650586e+02 4.2140000000e+00 0.0000e+00 -1.0000e+00
<mgrwt>
<rscale>  0 0.14000003E+04</rscale>
<asrwt>0</asrwt>
<pdfrwt beam="1">  1       21 0.13944023E+00 0.14000003E+04</pdfrwt>
<pdfrwt beam="2">  1       21 0.83172828E-01 0.14000003E+04</pdfrwt>
<totfact> 0.33976497E+02</totfact>
</mgrwt>
<rwgt>
<wgt id='1001'> +2.8343000e+11 </wgt>
<wgt id='1002'> +3.1272603e+11 </wgt>
<wgt id='1003'> +3.1271790e+11 </wgt>
<wgt id='1004'> +3.5306486e+11 </wgt>
<wgt id='1005'> +2.8343000e+11 </wgt>
<wgt id='1006'> +2.8343000e+11 </wgt>
<wgt id='1007'> +3.1272603e+11 </wgt>
<wgt id='1008'> +3.1271790e+11 </wgt>
<wgt id='1009'> +3.5306486e+11 </wgt>
<wgt id='1010'> +2.8343000e+11 </wgt>
<wgt id='1011'> +2.8343000e+11 </wgt>
<wgt id='1012'> +3.1272603e+11 </wgt>
<wgt id='1013'> +3.1271790e+11 </wgt>
<wgt id='1014'> +3.5306486e+11 </wgt>
<wgt id='1015'> +2.8343000e+11 </wgt>
<wgt id='1016'> +2.5453109e+11 </wgt>
<wgt id='1017'> +2.7912273e+11 </wgt>
<wgt id='1018'> +2.7911594e+11 </wgt>
<wgt id='1019'> +3.1271790e+11 </wgt>
<wgt id='1020'> +2.5453109e+11 </wgt>
<wgt id='1021'> +2.5453109e+11 </wgt>
<wgt id='1022'> +2.7912273e+11 </wgt>
<wgt id='1023'> +2.7911594e+11 </wgt>
<wgt id='1024'> +3.1271790e+11 </wgt>
<wgt id='1025'> +2.5453109e+11 </wgt>
<wgt id='1026'> +2.5453109e+11 </wgt>
<wgt id='1027'> +2.7912273e+11 </wgt>
<wgt id='1028'> +2.7911594e+11 </wgt>
<wgt id='1029'> +3.1271790e+11 </wgt>
<wgt id='1030'> +2.5453109e+11 </wgt>
<wgt id='1031'> +3.1788935e+11 </wgt>
<wgt id='1032'> +3.5307468e+11 </wgt>
<wgt id='1033'> +3.5306486e+11 </wgt>
<wgt id='1034'> +4.0216664e+11 </wgt>
<wgt id='1035'> +3.1788935e+11 </wgt>
<wgt id='1036'> +3.1788935e+11 </wgt>
<wgt id='1037'> +3.5307468e+11 </wgt>
<wgt id='1038'> +3.5306486e+11 </wgt>
<wgt id='1039'> +4.0216664e+11 </wgt>
<wgt id='1040'> +3.1788935e+11 </wgt>
<wgt id='1041'> +3.1788935e+11 </wgt>
<wgt id='1042'> +3.5307468e+11 </wgt>
<wgt id='1043'> +3.5306486e+11 </wgt>
<wgt id='1044'> +4.0216664e+11 </wgt>
<wgt id='1045'> +3.1788935e+11 </wgt>
<wgt id='1046'> +2.8343000e+11 </wgt>
<wgt id='1047'> +2.8343000e+11 </wgt>
<wgt id='1048'> +2.8343000e+11 </wgt>
<wgt id='1049'> +2.8247443e+11 </wgt>
<wgt id='1050'> +2.8314991e+11 </wgt>
<wgt id='1051'> +2.8351158e+11 </wgt>
<wgt id='1052'> +2.8429873e+11 </wgt>
<wgt id='1053'> +2.8183044e+11 </wgt>
<wgt id='1054'> +2.8381218e+11 </wgt>
<wgt id='1055'> +2.8226012e+11 </wgt>
<wgt id='1056'> +2.8196222e+11 </wgt>
<wgt id='1057'> +2.8400985e+11 </wgt>
<wgt id='1058'> +2.8298272e+11 </wgt>
<wgt id='1059'> +2.8531101e+11 </wgt>
<wgt id='1060'> +2.8370047e+11 </wgt>
<wgt id='1061'> +2.8408961e+11 </wgt>
<wgt id='1062'> +2.8411005e+11 </wgt>
<wgt id='1063'> +2.8395640e+11 </wgt>
<wgt id='1064'> +2.8442883e+11 </wgt>
<wgt id='1065'> +2.8476585e+11 </wgt>
<wgt id='1066'> +2.8163854e+11 </wgt>
<wgt id='1067'> +2.8040457e+11 </wgt>
<wgt id='1068'> +2.8354144e+11 </wgt>
<wgt id='1069'> +2.8264776e+11 </wgt>
<wgt id='1070'> +2.8363796e+11 </wgt>
<wgt id='1071'> +2.8425450e+11 </wgt>
<wgt id='1072'> +2.8139530e+11 </wgt>
<wgt id='1073'> +2.8393095e+11 </wgt>
<wgt id='1074'> +2.8328843e+11 </wgt>
<wgt id='1075'> +2.8448237e+11 </wgt>
<wgt id='1076'> +2.8246789e+11 </wgt>
<wgt id='1077'> +2.8255879e+11 </wgt>
<wgt id='1078'> +2.8409802e+11 </wgt>
<wgt id='1079'> +2.8198315e+11 </wgt>
<wgt id='1080'> +2.8296311e+11 </wgt>
<wgt id='1081'> +2.8296542e+11 </wgt>
<wgt id='1082'> +2.8211249e+11 </wgt>
<wgt id='1083'> +2.8389685e+11 </wgt>
<wgt id='1084'> +2.8401493e+11 </wgt>
<wgt id='1085'> +2.8281292e+11 </wgt>
<wgt id='1086'> +2.8295603e+11 </wgt>
<wgt id='1087'> +2.8309763e+11 </wgt>
<wgt id='1088'> +2.8293941e+11 </wgt>
<wgt id='1089'> +2.8276288e+11 </wgt>
<wgt id='1090'> +2.8414375e+11 </wgt>
<wgt id='1091'> +2.8352387e+11 </wgt>
<wgt id='1092'> +2.8368239e+11 </wgt>
<wgt id='1093'> +2.8331055e+11 </wgt>
<wgt id='1094'> +2.8282964e+11 </wgt>
<wgt id='1095'> +2.8357624e+11 </wgt>
<wgt id='1096'> +2.8335207e+11 </wgt>
<wgt id='1097'> +2.8302166e+11 </wgt>
<wgt id='1098'> +2.8309153e+11 </wgt>
<wgt id='1099'> +2.8317280e+11 </wgt>
<wgt id='1100'> +2.8401301e+11 </wgt>
<wgt id='1101'> +2.8341128e+11 </wgt>
<wgt id='1102'> +2.8328240e+11 </wgt>
<wgt id='1103'> +2.8308102e+11 </wgt>
<wgt id='1104'> +2.8312897e+11 </wgt>
<wgt id='1105'> +2.8354949e+11 </wgt>
<wgt id='1106'> +2.8374486e+11 </wgt>
<wgt id='1107'> +2.8334916e+11 </wgt>
<wgt id='1108'> +2.8332933e+11 </wgt>
<wgt id='1109'> +2.8321798e+11 </wgt>
<wgt id='1110'> +2.8374894e+11 </wgt>
<wgt id='1111'> +2.8356250e+11 </wgt>
<wgt id='1112'> +2.8339069e+11 </wgt>
<wgt id='1113'> +2.8374263e+11 </wgt>
<wgt id='1114'> +2.8311381e+11 </wgt>
<wgt id='1115'> +2.8320585e+11 </wgt>
<wgt id='1116'> +2.8378880e+11 </wgt>
<wgt id='1117'> +2.8336814e+11 </wgt>
<wgt id='1118'> +2.8353403e+11 </wgt>
<wgt id='1119'> +2.8322641e+11 </wgt>
<wgt id='1120'> +2.8326345e+11 </wgt>
<wgt id='1121'> +2.8348484e+11 </wgt>
<wgt id='1122'> +2.8321270e+11 </wgt>
<wgt id='1123'> +2.8337802e+11 </wgt>
<wgt id='1124'> +2.8337585e+11 </wgt>
<wgt id='1125'> +2.8359168e+11 </wgt>
<wgt id='1126'> +2.8353923e+11 </wgt>
<wgt id='1127'> +2.8332450e+11 </wgt>
<wgt id='1128'> +2.8345412e+11 </wgt>
<wgt id='1129'> +2.8336855e+11 </wgt>
<wgt id='1130'> +2.8346404e+11 </wgt>
<wgt id='1131'> +2.8373058e+11 </wgt>
<wgt id='1132'> +2.8334974e+11 </wgt>
<wgt id='1133'> +2.8350913e+11 </wgt>
<wgt id='1134'> +2.8340840e+11 </wgt>
<wgt id='1135'> +2.8347297e+11 </wgt>
<wgt id='1136'> +2.8338322e+11 </wgt>
<wgt id='1137'> +2.8327279e+11 </wgt>
<wgt id='1138'> +2.8355111e+11 </wgt>
<wgt id='1139'> +2.8347949e+11 </wgt>
<wgt id='1140'> +2.8363614e+11 </wgt>
<wgt id='1141'> +2.8328266e+11 </wgt>
<wgt id='1142'> +2.8350460e+11 </wgt>
<wgt id='1143'> +2.8359888e+11 </wgt>
<wgt id='1144'> +2.8334209e+11 </wgt>
<wgt id='1145'> +2.8356149e+11 </wgt>
<wgt id='1146'> +2.8342371e+11 </wgt>
<wgt id='1147'> +2.8348032e+11 </wgt>
<wgt id='1148'> +2.8343000e+11 </wgt>
<wgt id='1149'> +2.8343000e+11 </wgt>
<wgt id='1150'> +2.9405301e+11 </wgt>
<wgt id='1151'> +2.7996835e+11 </wgt>
<wgt id='1152'> +2.8256810e+11 </wgt>
<wgt id='1153'> +2.8707229e+11 </wgt>
<wgt id='1154'> +2.8588314e+11 </wgt>
<wgt id='1155'> +2.8971170e+11 </wgt>
<wgt id='1156'> +2.7692408e+11 </wgt>
<wgt id='1157'> +2.7559774e+11 </wgt>
<wgt id='1158'> +2.7741876e+11 </wgt>
<wgt id='1159'> +2.9776949e+11 </wgt>
<wgt id='1160'> +2.8280788e+11 </wgt>
<wgt id='1161'> +2.8559071e+11 </wgt>
<wgt id='1162'> +2.7961244e+11 </wgt>
<wgt id='1163'> +2.8643558e+11 </wgt>
<wgt id='1164'> +2.6920504e+11 </wgt>
<wgt id='1165'> +2.7838355e+11 </wgt>
<wgt id='1166'> +2.8422434e+11 </wgt>
<wgt id='1167'> +2.7910055e+11 </wgt>
<wgt id='1168'> +2.7585253e+11 </wgt>
<wgt id='1169'> +2.7576679e+11 </wgt>
<wgt id='1170'> +2.7918819e+11 </wgt>
<wgt id='1171'> +2.7312429e+11 </wgt>
<wgt id='1172'> +2.7667712e+11 </wgt>
<wgt id='1173'> +2.8688907e+11 </wgt>
<wgt id='1174'> +2.7861024e+11 </wgt>
<wgt id='1175'> +2.7625618e+11 </wgt>
<wgt id='1176'> +2.8634367e+11 </wgt>
<wgt id='1177'> +2.7865000e+11 </wgt>
<wgt id='1178'> +2.8308460e+11 </wgt>
<wgt id='1179'> +2.8081283e+11 </wgt>
<wgt id='1180'> +2.8769988e+11 </wgt>
<wgt id='1181'> +2.8044205e+11 </wgt>
<wgt id='1182'> +2.8085908e+11 </wgt>
<wgt id='1183'> +2.9377067e+11 </wgt>
<wgt id='1184'> +2.8050857e+11 </wgt>
<wgt id='1185'> +2.8394574e+11 </wgt>
<wgt id='1186'> +2.7369821e+11 </wgt>
<wgt id='1187'> +2.8501394e+11 </wgt>
<wgt id='1188'> +2.8169574e+11 </wgt>
<wgt id='1189'> +2.8426471e+11 </wgt>
<wgt id='1190'> +2.8312629e+11 </wgt>
<wgt id='1191'> +2.9353633e+11 </wgt>
<wgt id='1192'> +2.9077726e+11 </wgt>
<wgt id='1193'> +2.9393568e+11 </wgt>
<wgt id='1194'> +2.8335964e+11 </wgt>
<wgt id='1195'> +2.8366710e+11 </wgt>
<wgt id='1196'> +2.9204105e+11 </wgt>
<wgt id='1197'> +2.9291223e+11 </wgt>
<wgt id='1198'> +2.7849311e+11 </wgt>
<wgt id='1199'> +2.8466710e+11 </wgt>
<wgt id='1200'> +2.8378056e+11 </wgt>
<wgt id='1201'> +2.7958767e+11 </wgt>
<wgt id='1202'> +2.8796266e+11 </wgt>
<wgt id='1203'> +2.7865034e+11 </wgt>
<wgt id='1204'> +2.8644191e+11 </wgt>
<wgt id='1205'> +2.8436522e+11 </wgt>
<wgt id='1206'> +2.7746898e+11 </wgt>
<wgt id='1207'> +2.9228417e+11 </wgt>
<wgt id='1208'> +2.7194893e+11 </wgt>
<wgt id='1209'> +2.8012156e+11 </wgt>
<wgt id='1210'> +2.8199431e+11 </wgt>
<wgt id='1211'> +2.8574002e+11 </wgt>
<wgt id='1212'> +2.8330517e+11 </wgt>
<wgt id='1213'> +2.9200626e+11 </wgt>
<wgt id='1214'> +2.7603347e+11 </wgt>
<wgt id='1215'> +2.8991540e+11 </wgt>
<wgt id='1216'> +2.8505981e+11 </wgt>
<wgt id='1217'> +2.7624717e+11 </wgt>
<wgt id='1218'> +2.8466113e+11 </wgt>
<wgt id='1219'> +2.9401584e+11 </wgt>
<wgt id='1220'> +2.7780614e+11 </wgt>
<wgt id='1221'> +2.7558744e+11 </wgt>
<wgt id='1222'> +2.7968073e+11 </wgt>
<wgt id='1223'> +2.7275807e+11 </wgt>
<wgt id='1224'> +2.8335076e+11 </wgt>
<wgt id='1225'> +2.8834138e+11 </wgt>
<wgt id='1226'> +2.8926925e+11 </wgt>
<wgt id='1227'> +2.7537585e+11 </wgt>
<wgt id='1228'> +2.8158791e+11 </wgt>
<wgt id='1229'> +3.0236743e+11 </wgt>
<wgt id='1230'> +2.9273250e+11 </wgt>
<wgt id='1231'> +2.7838355e+11 </wgt>
<wgt id='1232'> +2.8832283e+11 </wgt>
<wgt id='1233'> +2.7745637e+11 </wgt>
<wgt id='1234'> +2.7658661e+11 </wgt>
<wgt id='1235'> +3.0165058e+11 </wgt>
<wgt id='1236'> +2.7673616e+11 </wgt>
<wgt id='1237'> +2.8929862e+11 </wgt>
<wgt id='1238'> +2.8742596e+11 </wgt>
<wgt id='1239'> +2.8994371e+11 </wgt>
<wgt id='1240'> +2.8335666e+11 </wgt>
<wgt id='1241'> +2.8277699e+11 </wgt>
<wgt id='1242'> +2.8032378e+11 </wgt>
<wgt id='1243'> +2.8787358e+11 </wgt>
<wgt id='1244'> +2.8232060e+11 </wgt>
<wgt id='1245'> +2.8103870e+11 </wgt>
<wgt id='1246'> +3.0628636e+11 </wgt>
<wgt id='1247'> +2.8281184e+11 </wgt>
<wgt id='1248'> +2.7450632e+11 </wgt>
<wgt id='1249'> +2.7691301e+11 </wgt>
<wgt id='1250'> +2.9234424e+11 </wgt>
<wgt id='1251'> +2.9836814e+11 </wgt>
<wgt id='1252'> +2.8656828e+11 </wgt>
<wgt id='1253'> +2.8543425e+11 </wgt>
<wgt id='1254'> +2.8778581e+11 </wgt>
<wgt id='1255'> +2.9810375e+11 </wgt>
<wgt id='1256'> +2.9670515e+11 </wgt>
<wgt id='1257'> +2.8878495e+11 </wgt>
<wgt id='1258'> +2.9757152e+11 </wgt>
<wgt id='1259'> +2.9528922e+11 </wgt>
<wgt id='1260'> +3.2463720e+11 </wgt>
<wgt id='1261'> +3.1287939e+11 </wgt>
<wgt id='1262'> +2.8960075e+11 </wgt>
<wgt id='1263'> +2.9641421e+11 </wgt>
<wgt id='1264'> +2.9859665e+11 </wgt>
<wgt id='1265'> +2.9692008e+11 </wgt>
<wgt id='1266'> +2.9546092e+11 </wgt>
<wgt id='1267'> +3.2091138e+11 </wgt>
<wgt id='1268'> +2.9235457e+11 </wgt>
<wgt id='1269'> +2.8633386e+11 </wgt>
<wgt id='1270'> +2.9334618e+11 </wgt>
<wgt id='1271'> +2.7585523e+11 </wgt>
<wgt id='1272'> +2.9239208e+11 </wgt>
<wgt id='1273'> +2.9066349e+11 </wgt>
<wgt id='1274'> +2.8632973e+11 </wgt>
<wgt id='1275'> +2.9677548e+11 </wgt>
<wgt id='1276'> +2.9596626e+11 </wgt>
<wgt id='1277'> +2.9124302e+11 </wgt>
<wgt id='1278'> +2.8916231e+11 </wgt>
<wgt id='1279'> +2.8005848e+11 </wgt>
<wgt id='1280'> +2.9077529e+11 </wgt>
<wgt id='1281'> +2.8470802e+11 </wgt>
<wgt id='1282'> +2.9551275e+11 </wgt>
<wgt id='1283'> +2.9767018e+11 </wgt>
<wgt id='1284'> +3.1275798e+11 </wgt>
<wgt id='1285'> +3.0731841e+11 </wgt>
<wgt id='1286'> +3.2788140e+11 </wgt>
<wgt id='1287'> +3.0272155e+11 </wgt>
<wgt id='1288'> +3.2428310e+11 </wgt>
<wgt id='1289'> +3.1224718e+11 </wgt>
<wgt id='1290'> +3.1069533e+11 </wgt>
<wgt id='1291'> +2.7713342e+11 </wgt>
<wgt id='1292'> +2.9762237e+11 </wgt>
<wgt id='1293'> +3.0007326e+11 </wgt>
<wgt id='1294'> +3.1480459e+11 </wgt>
<wgt id='1295'> +3.0070754e+11 </wgt>
<wgt id='1296'> +3.1677320e+11 </wgt>
<wgt id='1297'> +2.9387934e+11 </wgt>
<wgt id='1298'> +2.8686018e+11 </wgt>
<wgt id='1299'> +2.9881970e+11 </wgt>
<wgt id='1300'> +2.8731160e+11 </wgt>
<wgt id='1301'> +2.7935593e+11 </wgt>
<wgt id='1302'> +2.7772644e+11 </wgt>
<wgt id='1303'> +2.9834192e+11 </wgt>
<wgt id='1304'> +3.0872839e+11 </wgt>
<wgt id='1305'> +2.9757324e+11 </wgt>
<wgt id='1306'> +3.0452466e+11 </wgt>
<wgt id='1307'> +2.9990225e+11 </wgt>
<wgt id='1308'> +3.2535199e+11 </wgt>
<wgt id='1309'> +2.9580324e+11 </wgt>
<wgt id='1310'> +3.0145424e+11 </wgt>
<wgt id='1311'> +3.0526242e+11 </wgt>
<wgt id='1312'> +3.0020878e+11 </wgt>
<wgt id='1313'> +2.9717292e+11 </wgt>
<wgt id='1314'> +3.0149391e+11 </wgt>
<wgt id='1315'> +2.8471489e+11 </wgt>
<wgt id='1316'> +2.9806670e+11 </wgt>
<wgt id='1317'> +3.0191021e+11 </wgt>
<wgt id='1318'> +2.8731598e+11 </wgt>
<wgt id='1319'> +3.0412349e+11 </wgt>
<wgt id='1320'> +3.0970378e+11 </wgt>
<wgt id='1321'> +2.9382087e+11 </wgt>
<wgt id='1322'> +2.9782784e+11 </wgt>
<wgt id='1323'> +2.9629268e+11 </wgt>
<wgt id='1324'> +3.0123622e+11 </wgt>
<wgt id='1325'> +3.1028681e+11 </wgt>
<wgt id='1326'> +3.0341656e+11 </wgt>
<wgt id='1327'> +2.9642176e+11 </wgt>
<wgt id='1328'> +3.0003564e+11 </wgt>
<wgt id='1329'> +2.9699725e+11 </wgt>
<wgt id='1330'> +2.8884819e+11 </wgt>
<wgt id='1331'> +3.1895055e+11 </wgt>
<wgt id='1332'> +2.8698963e+11 </wgt>
<wgt id='1333'> +3.0017684e+11 </wgt>
<wgt id='1334'> +3.1329002e+11 </wgt>
<wgt id='1335'> +2.9191613e+11 </wgt>
<wgt id='1336'> +3.0388770e+11 </wgt>
<wgt id='1337'> +3.0765661e+11 </wgt>
<wgt id='1338'> +2.8862829e+11 </wgt>
<wgt id='1339'> +3.1856063e+11 </wgt>
<wgt id='1340'> +3.0143177e+11 </wgt>
<wgt id='1341'> +3.0669938e+11 </wgt>
<wgt id='1342'> +3.1224426e+11 </wgt>
<wgt id='1343'> +3.0899401e+11 </wgt>
<wgt id='1344'> +3.0540323e+11 </wgt>
<wgt id='1345'> +2.7630071e+11 </wgt>
<wgt id='1346'> +2.9953744e+11 </wgt>
<wgt id='1347'> +2.8684592e+11 </wgt>
<wgt id='1348'> +2.8749497e+11 </wgt>
<wgt id='1349'> +2.8804057e+11 </wgt>
<wgt id='1350'> +3.0083517e+11 </wgt>
<wgt id='1351'> +2.9484474e+11 </wgt>
<wgt id='1352'> +3.0022986e+11 </wgt>
<wgt id='1353'> +2.9689039e+11 </wgt>
<wgt id='1354'> +3.0641001e+11 </wgt>
<wgt id='1355'> +2.7517472e+11 </wgt>
<wgt id='1356'> +2.7789844e+11 </wgt>
<wgt id='1357'> +2.7583591e+11 </wgt>
<wgt id='1358'> +2.7278248e+11 </wgt>
<wgt id='1359'> +2.7572601e+11 </wgt>
<wgt id='1360'> +2.6885775e+11 </wgt>
<wgt id='1361'> +2.7495579e+11 </wgt>
<wgt id='1362'> +2.7821432e+11 </wgt>
<wgt id='1363'> +2.6973955e+11 </wgt>
<wgt id='1364'> +2.8091888e+11 </wgt>
<wgt id='1365'> +2.7288854e+11 </wgt>
<wgt id='1366'> +2.7440518e+11 </wgt>
<wgt id='1367'> +2.7591359e+11 </wgt>
<wgt id='1368'> +2.7530075e+11 </wgt>
<wgt id='1369'> +2.7887937e+11 </wgt>
<wgt id='1370'> +2.7329305e+11 </wgt>
<wgt id='1371'> +2.7366799e+11 </wgt>
<wgt id='1372'> +2.7920542e+11 </wgt>
<wgt id='1373'> +2.7865506e+11 </wgt>
<wgt id='1374'> +2.6713106e+11 </wgt>
<wgt id='1375'> +2.7457022e+11 </wgt>
<wgt id='1376'> +2.7565605e+11 </wgt>
<wgt id='1377'> +2.7538086e+11 </wgt>
<wgt id='1378'> +2.7174709e+11 </wgt>
<wgt id='1379'> +2.7365034e+11 </wgt>
<wgt id='1380'> +2.7333399e+11 </wgt>
<wgt id='1381'> +2.8038089e+11 </wgt>
<wgt id='1382'> +2.7468162e+11 </wgt>
<wgt id='1383'> +2.7461945e+11 </wgt>
<wgt id='1384'> +2.7316412e+11 </wgt>
<wgt id='1385'> +2.7312744e+11 </wgt>
<wgt id='1386'> +2.7642876e+11 </wgt>
<wgt id='1387'> +2.7399445e+11 </wgt>
<wgt id='1388'> +2.7118722e+11 </wgt>
<wgt id='1389'> +2.7376170e+11 </wgt>
<wgt id='1390'> +2.7482109e+11 </wgt>
<wgt id='1391'> +2.7295920e+11 </wgt>
<wgt id='1392'> +2.7293747e+11 </wgt>
<wgt id='1393'> +2.7370499e+11 </wgt>
<wgt id='1394'> +2.7305548e+11 </wgt>
<wgt id='1395'> +2.7079473e+11 </wgt>
<wgt id='1396'> +2.7606591e+11 </wgt>
<wgt id='1397'> +2.7587690e+11 </wgt>
<wgt id='1398'> +2.7608358e+11 </wgt>
<wgt id='1399'> +2.7125493e+11 </wgt>
<wgt id='1400'> +2.7187356e+11 </wgt>
<wgt id='1401'> +2.7422032e+11 </wgt>
<wgt id='1402'> +2.7829590e+11 </wgt>
<wgt id='1403'> +2.7907939e+11 </wgt>
<wgt id='1404'> +2.7398097e+11 </wgt>
<wgt id='1405'> +2.8129848e+11 </wgt>
<wgt id='1406'> +2.7539039e+11 </wgt>
<wgt id='1407'> +2.7572364e+11 </wgt>
<wgt id='1408'> +2.7874968e+11 </wgt>
<wgt id='1409'> +2.7268968e+11 </wgt>
<wgt id='1410'> +2.7171942e+11 </wgt>
<wgt id='1411'> +2.7487335e+11 </wgt>
<wgt id='1412'> +2.7374822e+11 </wgt>
<wgt id='1413'> +2.7236206e+11 </wgt>
<wgt id='1414'> +2.7715889e+11 </wgt>
<wgt id='1415'> +2.8029544e+11 </wgt>
<wgt id='1416'> +2.7807790e+11 </wgt>
<wgt id='1417'> +2.6926956e+11 </wgt>
<wgt id='1418'> +2.7643856e+11 </wgt>
<wgt id='1419'> +2.7883672e+11 </wgt>
<wgt id='1420'> +2.7417774e+11 </wgt>
<wgt id='1421'> +2.8122598e+11 </wgt>
<wgt id='1422'> +2.6789422e+11 </wgt>
<wgt id='1423'> +2.8031655e+11 </wgt>
<wgt id='1424'> +2.7630019e+11 </wgt>
<wgt id='1425'> +2.7555328e+11 </wgt>
<wgt id='1426'> +2.7828574e+11 </wgt>
<wgt id='1427'> +2.7502712e+11 </wgt>
<wgt id='1428'> +2.7489913e+11 </wgt>
<wgt id='1429'> +2.7203964e+11 </wgt>
<wgt id='1430'> +2.7068242e+11 </wgt>
<wgt id='1431'> +2.7027609e+11 </wgt>
<wgt id='1432'> +2.7644761e+11 </wgt>
<wgt id='1433'> +2.7518107e+11 </wgt>
<wgt id='1434'> +2.8217835e+11 </wgt>
<wgt id='1435'> +2.7422397e+11 </wgt>
<wgt id='1436'> +2.7911853e+11 </wgt>
<wgt id='1437'> +2.7718310e+11 </wgt>
<wgt id='1438'> +2.7355999e+11 </wgt>
<wgt id='1439'> +2.7667694e+11 </wgt>
<wgt id='1440'> +2.7926226e+11 </wgt>
<wgt id='1441'> +2.7442749e+11 </wgt>
<wgt id='1442'> +2.8209876e+11 </wgt>
<wgt id='1443'> +2.7321287e+11 </wgt>
<wgt id='1444'> +2.7443443e+11 </wgt>
<wgt id='1445'> +2.7763301e+11 </wgt>
<wgt id='1446'> +2.7820777e+11 </wgt>
<wgt id='1447'> +2.7159530e+11 </wgt>
<wgt id='1448'> +2.7755304e+11 </wgt>
<wgt id='1449'> +2.7696910e+11 </wgt>
<wgt id='1450'> +2.7365693e+11 </wgt>
<wgt id='1451'> +2.7652652e+11 </wgt>
<wgt id='1452'> +2.7802359e+11 </wgt>
<wgt id='1453'> +2.7915790e+11 </wgt>
<wgt id='1454'> +2.6826275e+11 </wgt>
<wgt id='1455'> +2.7432058e+11 </wgt>
<wgt id='1456'> +2.7435997e+11 </wgt>
<wgt id='1457'> +2.7400188e+11 </wgt>
<wgt id='1458'> +2.7767606e+11 </wgt>
<wgt id='1459'> +3.0536490e+11 </wgt>
<wgt id='1460'> +3.0064842e+11 </wgt>
<wgt id='1461'> +3.4944889e+11 </wgt>
<wgt id='1462'> +2.9868301e+11 </wgt>
<wgt id='1463'> +2.9892733e+11 </wgt>
<wgt id='1464'> +2.9836967e+11 </wgt>
<wgt id='1465'> +2.9874515e+11 </wgt>
<wgt id='1466'> +2.9862624e+11 </wgt>
<wgt id='1467'> +2.9883769e+11 </wgt>
<wgt id='1468'> +2.9842922e+11 </wgt>
<wgt id='1469'> +2.9823728e+11 </wgt>
<wgt id='1470'> +2.9904504e+11 </wgt>
<wgt id='1471'> +2.9915495e+11 </wgt>
<wgt id='1472'> +2.9819692e+11 </wgt>
<wgt id='1473'> +2.9983669e+11 </wgt>
<wgt id='1474'> +2.9757493e+11 </wgt>
<wgt id='1475'> +2.9978241e+11 </wgt>
<wgt id='1476'> +2.9790357e+11 </wgt>
<wgt id='1477'> +2.9811580e+11 </wgt>
<wgt id='1478'> +3.0000800e+11 </wgt>
<wgt id='1479'> +2.9814563e+11 </wgt>
<wgt id='1480'> +2.9905880e+11 </wgt>
<wgt id='1481'> +2.9824989e+11 </wgt>
<wgt id='1482'> +2.9926729e+11 </wgt>
<wgt id='1483'> +2.9877671e+11 </wgt>
<wgt id='1484'> +2.9855020e+11 </wgt>
<wgt id='1485'> +2.9888609e+11 </wgt>
<wgt id='1486'> +2.9819400e+11 </wgt>
<wgt id='1487'> +2.9893788e+11 </wgt>
<wgt id='1488'> +2.9836306e+11 </wgt>
<wgt id='1489'> +2.9832973e+11 </wgt>
<wgt id='1490'> +2.9964076e+11 </wgt>
<wgt id='1491'> +3.0359461e+11 </wgt>
<wgt id='1492'> +2.9594233e+11 </wgt>
<wgt id='1493'> +2.9517592e+11 </wgt>
<wgt id='1494'> +3.0967595e+11 </wgt>
<wgt id='1495'> +2.9802842e+11 </wgt>
<wgt id='1496'> +2.9938522e+11 </wgt>
<wgt id='1497'> +2.9888129e+11 </wgt>
<wgt id='1498'> +2.9841197e+11 </wgt>
<wgt id='1499'> +3.0056709e+11 </wgt>
<wgt id='1500'> +2.9765251e+11 </wgt>
<wgt id='1501'> +2.9913737e+11 </wgt>
<wgt id='1502'> +2.9747898e+11 </wgt>
<wgt id='1503'> +2.9546078e+11 </wgt>
<wgt id='1504'> +3.0212338e+11 </wgt>
<wgt id='1505'> +2.9966982e+11 </wgt>
<wgt id='1506'> +2.9773173e+11 </wgt>
<wgt id='1507'> +3.0018929e+11 </wgt>
<wgt id='1508'> +2.9748481e+11 </wgt>
<wgt id='1509'> +2.9927622e+11 </wgt>
<wgt id='1510'> +2.9613594e+11 </wgt>
<wgt id='1511'> +2.9980564e+11 </wgt>
<wgt id='1512'> +2.9835800e+11 </wgt>
<wgt id='1513'> +2.9859857e+11 </wgt>
<wgt id='1514'> +2.9876589e+11 </wgt>
<wgt id='1515'> +3.0121163e+11 </wgt>
<wgt id='1516'> +2.9905664e+11 </wgt>
<wgt id='1517'> +2.9829800e+11 </wgt>
<wgt id='1518'> +2.9902460e+11 </wgt>
<wgt id='1519'> +2.9702283e+11 </wgt>
<wgt id='1520'> +2.9986394e+11 </wgt>
<wgt id='1521'> +2.9787302e+11 </wgt>
<wgt id='1522'> +2.9916473e+11 </wgt>
<wgt id='1523'> +3.0001633e+11 </wgt>
<wgt id='1524'> +3.0007015e+11 </wgt>
<wgt id='1525'> +2.9986269e+11 </wgt>
<wgt id='1526'> +2.9953185e+11 </wgt>
<wgt id='1527'> +2.9868301e+11 </wgt>
<wgt id='1528'> +2.9841818e+11 </wgt>
<wgt id='1529'> +2.9844437e+11 </wgt>
<wgt id='1530'> +2.9471865e+11 </wgt>
<wgt id='1531'> +2.9630855e+11 </wgt>
<wgt id='1532'> +2.9392731e+11 </wgt>
<wgt id='1533'> +2.9172439e+11 </wgt>
<wgt id='1534'> +2.9470448e+11 </wgt>
<wgt id='1535'> +2.9870087e+11 </wgt>
<wgt id='1536'> +2.9366359e+11 </wgt>
<wgt id='1537'> +2.9622353e+11 </wgt>
<wgt id='1538'> +2.9316922e+11 </wgt>
<wgt id='1539'> +3.0230736e+11 </wgt>
<wgt id='1540'> +2.9560790e+11 </wgt>
<wgt id='1541'> +2.9676539e+11 </wgt>
<wgt id='1542'> +2.9627277e+11 </wgt>
<wgt id='1543'> +2.9749183e+11 </wgt>
<wgt id='1544'> +2.9439384e+11 </wgt>
<wgt id='1545'> +2.9432806e+11 </wgt>
<wgt id='1546'> +2.9237470e+11 </wgt>
<wgt id='1547'> +2.9861483e+11 </wgt>
<wgt id='1548'> +2.9437521e+11 </wgt>
<wgt id='1549'> +2.9286393e+11 </wgt>
<wgt id='1550'> +2.9711974e+11 </wgt>
<wgt id='1551'> +2.9690738e+11 </wgt>
<wgt id='1552'> +2.9573327e+11 </wgt>
<wgt id='1553'> +2.9838099e+11 </wgt>
<wgt id='1554'> +2.9617736e+11 </wgt>
<wgt id='1555'> +2.9695420e+11 </wgt>
<wgt id='1556'> +2.9870210e+11 </wgt>
<wgt id='1557'> +2.9523374e+11 </wgt>
<wgt id='1558'> +2.9635361e+11 </wgt>
<wgt id='1559'> +2.9419301e+11 </wgt>
<wgt id='1560'> +2.9505951e+11 </wgt>
<wgt id='1561'> +2.9270216e+11 </wgt>
<wgt id='1562'> +2.9494012e+11 </wgt>
<wgt id='1563'> +2.9630803e+11 </wgt>
<wgt id='1564'> +2.9587783e+11 </wgt>
<wgt id='1565'> +2.9840442e+11 </wgt>
<wgt id='1566'> +2.9636308e+11 </wgt>
<wgt id='1567'> +2.9975855e+11 </wgt>
<wgt id='1568'> +2.9624223e+11 </wgt>
<wgt id='1569'> +2.9594383e+11 </wgt>
<wgt id='1570'> +3.0185922e+11 </wgt>
<wgt id='1571'> +2.9612869e+11 </wgt>
<wgt id='1572'> +2.9824089e+11 </wgt>
<wgt id='1573'> +2.9946052e+11 </wgt>
<wgt id='1574'> +2.6697855e+11 </wgt>
<wgt id='1575'> +2.6705103e+11 </wgt>
<wgt id='1576'> +2.6691058e+11 </wgt>
<wgt id='1577'> +2.6699694e+11 </wgt>
<wgt id='1578'> +2.6759165e+11 </wgt>
<wgt id='1579'> +2.6783705e+11 </wgt>
<wgt id='1580'> +2.6760995e+11 </wgt>
<wgt id='1581'> +2.6636285e+11 </wgt>
<wgt id='1582'> +2.6605895e+11 </wgt>
<wgt id='1583'> +2.6652526e+11 </wgt>
<wgt id='1584'> +2.6756188e+11 </wgt>
<wgt id='1585'> +2.6717337e+11 </wgt>
<wgt id='1586'> +2.6597356e+11 </wgt>
<wgt id='1587'> +2.6622164e+11 </wgt>
<wgt id='1588'> +2.6572238e+11 </wgt>
<wgt id='1589'> +2.6671691e+11 </wgt>
<wgt id='1590'> +2.6679683e+11 </wgt>
<wgt id='1591'> +2.6704782e+11 </wgt>
<wgt id='1592'> +2.6594791e+11 </wgt>
<wgt id='1593'> +2.6608712e+11 </wgt>
<wgt id='1594'> +2.6781770e+11 </wgt>
<wgt id='1595'> +2.6470813e+11 </wgt>
<wgt id='1596'> +2.7063351e+11 </wgt>
<wgt id='1597'> +2.6872620e+11 </wgt>
<wgt id='1598'> +2.6893947e+11 </wgt>
<wgt id='1599'> +2.6420383e+11 </wgt>
<wgt id='1600'> +2.7145077e+11 </wgt>
<wgt id='1601'> +2.6911850e+11 </wgt>
<wgt id='1602'> +2.6703306e+11 </wgt>
<wgt id='1603'> +2.7785101e+11 </wgt>
<wgt id='1604'> +2.6695007e+11 </wgt>
</rwgt>
</event>
<event>
 9      1 +2.8343000e+11 1.40000000e+03 7.81738600e-03 7.88881100e-02
       21 -1    0    0  504  503 +0.0000000000e+00 +0.0000000000e+00 +9.1429634299e+02 9.1429634299e+02 0.0000000000e+00 0.0000e+00 -1.0000e+00
       21 -1    0    0  503  504 -0.0000000000e+00 -0.0000000000e+00 -5.3593161192e+02 5.3593161192e+02 0.0000000000e+00 0.0000e+00 -1.0000e+00
       45  2    1    2    0    0 +0.0000000000e+00 +0.0000000000e+00 +3.7836473108e+02 1.4502279549e+03 1.4000004470e+03 0.0000e+00 0.0000e+00
       25  2    3    3    0    0 +3.4895350874e+02 -2.6878111932e+02 +7.4207402523e+02 8.7195790476e+02 1.2499954951e+02 0.0000e+00 0.0000e+00
       35  2    3    3    0    0 -3.4895350874e+02 +2.6878111932e+02 -3.6370929416e+02 5.7827005015e+02 8.9999771570e+01 0.0000e+00 0.0000e+00
        5  1    5    5  501    0 -1.7131117675e+02 +1.0342614616e+02 -1.1543678153e+02 2.3105820763e+02 4.2140000000e+00 0.0000e+00 -1.0000e+00
       -5  1    5    5    0  501 -1.7764233199e+02 +1.6535497316e+02 -2.4827251263e+02 3.4721184252e+02 4.2140000000e+00 0.0000e+00 -1.0000e+00
        5  1    4    4  502    0 +1.9588645020e+02 -1.7431448766e+02 +3.2415241212e+02 4.1695273840e+02 4.2140000000e+00 0.0000e+00 -1.0000e+00
       -5  1    4    4    0  502 +1.5306705854e+02 -9.4466631651e+01 +4.1792161312e+02 4.5500516636e+02 4.2140000000e+00 0.0000e+00 -1.0000e+00
<mgrwt>
<rscale>  0 0.14000004E+04</rscale>
<asrwt>0</asrwt>
<pdfrwt beam="1">  1       21 0.14066097E+00 0.14000004E+04</pdfrwt>
<pdfrwt beam="2">  1       21 0.82451018E-01 0.14000004E+04</pdfrwt>
<totfact> 0.33844776E+02</totfact>
</mgrwt>
<rwgt>
<wgt id='1001'> +2.8343000e+11 </wgt>
<wgt id='1002'> +3.0552933e+11 </wgt>
<wgt id='1003'> +3.0552400e+11 </wgt>
<wgt id='1004'> +3.4443020e+11 </wgt>
<wgt id='1005'> +2.8343000e+11 </wgt>
<wgt id='1006'> +2.8343000e+11 </wgt>
<wgt id='1007'> +3.0552933e+11 </wgt>
<wgt id='1008'> +3.0552400e+11 </wgt>
<wgt id='1009'> +3.4443020e+11 </wgt>
<wgt id='1010'> +2.8343000e+11 </wgt>
<wgt id='1011'> +2.8343000e+11 </wgt>
<wgt id='1012'> +3.0552933e+11 </wgt>
<wgt id='1013'> +3.0552400e+11 </wgt>
<wgt id='1014'> +3.4443020e+11 </wgt>
<wgt id='1015'> +2.8343000e+11 </wgt>
<wgt id='1016'> +2.5451763e+11 </wgt>
<wgt id='1017'> +2.7310140e+11 </wgt>
<wgt id='1018'> +2.7309695e+11 </wgt>
<wgt id='1019'> +3.0552400e+11 </wgt>
<wgt id='1020'> +2.5451763e+11 </wgt>
<wgt id='1021'> +2.5451763e+11 </wgt>
<wgt id='1022'> +2.7310140e+11 </wgt>
<wgt id='1023'> +2.7309695e+11 </wgt>
<wgt id='1024'> +3.0552400e+11 </wgt>
<wgt id='1025'> +2.5451763e+11 </wgt>
<wgt id='1026'> +2.5451763e+11 </wgt>
<wgt id='1027'> +2.7310140e+11 </wgt>
<wgt id='1028'> +2.7309695e+11 </wgt>
<wgt id='1029'> +3.0552400e+11 </wgt>
<wgt id='1030'> +2.5451763e+11 </wgt>
<wgt id='1031'> +3.1790706e+11 </wgt>
<wgt id='1032'> +3.4443660e+11 </wgt>
<wgt id='1033'> +3.4443020e+11 </wgt>
<wgt id='1034'> +3.9164652e+11 </wgt>
<wgt id='1035'> +3.1790706e+11 </wgt>
<wgt id='1036'> +3.1790706e+11 </wgt>
<wgt id='1037'> +3.4443660e+11 </wgt>
<wgt id='1038'> +3.4443020e+11 </wgt>
<wgt id='1039'> +3.9164652e+11 </wgt>
<wgt id='1040'> +3.1790706e+11 </wgt>
<wgt id='1041'> +3.1790706e+11 </wgt>
<wgt id='1042'> +3.4443660e+11 </wgt>
<wgt id='1043'> +3.4443020e+11 </wgt>
<wgt id='1044'> +3.9164652e+11 </wgt>
<wgt id='1045'> +3.1790706e+11 </wgt>
<wgt id='1046'> +2.8343000e+11 </wgt>
<wgt id='1047'> +2.8343000e+11 </wgt>
<wgt id='1048'> +2.8343000e+11 </wgt>
<wgt id='1049'> +2.8248727e+11 </wgt>
<wgt id='1050'> +2.8315613e+11 </wgt>
<wgt id='1051'> +2.8349790e+11 </wgt>
<wgt id='1052'> +2.8430305e+11 </wgt>
<wgt id='1053'> +2.8182562e+11 </wgt>
<wgt id='1054'> +2.8380706e+11 </wgt>
<wgt id='1055'> +2.8225972e+11 </wgt>
<wgt id='1056'> +2.8196944e+11 </wgt>
<wgt id='1057'> +2.8399678e+11 </wgt>
<wgt id='1058'> +2.8297805e+11 </wgt>
<wgt id='1059'> +2.8530339e+11 </wgt>
<wgt id='1060'> +2.8370471e+11 </wgt>
<wgt id='1061'> +2.8408323e+11 </wgt>
<wgt id='1062'> +2.8411651e+11 </wgt>
<wgt id='1063'> +2.8397628e+11 </wgt>
<wgt id='1064'> +2.8441162e+11 </wgt>
<wgt id='1065'> +2.8475952e+11 </wgt>
<wgt id='1066'> +2.8161831e+11 </wgt>
<wgt id='1067'> +2.8044886e+11 </wgt>
<wgt id='1068'> +2.8352413e+11 </wgt>
<wgt id='1069'> +2.8264216e+11 </wgt>
<wgt id='1070'> +2.8364924e+11 </wgt>
<wgt id='1071'> +2.8421419e+11 </wgt>
<wgt id='1072'> +2.8141645e+11 </wgt>
<wgt id='1073'> +2.8391684e+11 </wgt>
<wgt id='1074'> +2.8329733e+11 </wgt>
<wgt id='1075'> +2.8448518e+11 </wgt>
<wgt id='1076'> +2.8242372e+11 </wgt>
<wgt id='1077'> +2.8253522e+11 </wgt>
<wgt id='1078'> +2.8409708e+11 </wgt>
<wgt id='1079'> +2.8199419e+11 </wgt>
<wgt id='1080'> +2.8297504e+11 </wgt>
<wgt id='1081'> +2.8296341e+11 </wgt>
<wgt id='1082'> +2.8211694e+11 </wgt>
<wgt id='1083'> +2.8388975e+11 </wgt>
<wgt id='1084'> +2.8400939e+11 </wgt>
<wgt id='1085'> +2.8280930e+11 </wgt>
<wgt id='1086'> +2.8296485e+11 </wgt>
<wgt id='1087'> +2.8309857e+11 </wgt>
<wgt id='1088'> +2.8293851e+11 </wgt>
<wgt id='1089'> +2.8275840e+11 </wgt>
<wgt id='1090'> +2.8414364e+11 </wgt>
<wgt id='1091'> +2.8352399e+11 </wgt>
<wgt id='1092'> +2.8368600e+11 </wgt>
<wgt id='1093'> +2.8331101e+11 </wgt>
<wgt id='1094'> +2.8282587e+11 </wgt>
<wgt id='1095'> +2.8357891e+11 </wgt>
<wgt id='1096'> +2.8335322e+11 </wgt>
<wgt id='1097'> +2.8302137e+11 </wgt>
<wgt id='1098'> +2.8309225e+11 </wgt>
<wgt id='1099'> +2.8317047e+11 </wgt>
<wgt id='1100'> +2.8401379e+11 </wgt>
<wgt id='1101'> +2.8341270e+11 </wgt>
<wgt id='1102'> +2.8328365e+11 </wgt>
<wgt id='1103'> +2.8307678e+11 </wgt>
<wgt id='1104'> +2.8313150e+11 </wgt>
<wgt id='1105'> +2.8354892e+11 </wgt>
<wgt id='1106'> +2.8374552e+11 </wgt>
<wgt id='1107'> +2.8335268e+11 </wgt>
<wgt id='1108'> +2.8332745e+11 </wgt>
<wgt id='1109'> +2.8321776e+11 </wgt>
<wgt id='1110'> +2.8374784e+11 </wgt>
<wgt id='1111'> +2.8356258e+11 </wgt>
<wgt id='1112'> +2.8339012e+11 </wgt>
<wgt id='1113'> +2.8374288e+11 </wgt>
<wgt id='1114'> +2.8311352e+11 </wgt>
<wgt id='1115'> +2.8320261e+11 </wgt>
<wgt id='1116'> +2.8379264e+11 </wgt>
<wgt id='1117'> +2.8336803e+11 </wgt>
<wgt id='1118'> +2.8353580e+11 </wgt>
<wgt id='1119'> +2.8322374e+11 </wgt>
<wgt id='1120'> +2.8326189e+11 </wgt>
<wgt id='1121'> +2.8348571e+11 </wgt>
<wgt id='1122'> +2.8321125e+11 </wgt>
<wgt id='1123'> +2.8337767e+11 </wgt>
<wgt id='1124'> +2.8337715e+11 </wgt>
<wgt id='1125'> +2.8359208e+11 </wgt>
<wgt id='1126'> +2.8353937e+11 </wgt>
<wgt id='1127'> +2.8332428e+11 </wgt>
<wgt id='1128'> +2.8345287e+11 </wgt>
<wgt id='1129'> +2.8336767e+11 </wgt>
<wgt id='1130'> +2.8346464e+11 </wgt>
<wgt id='1131'> +2.8373322e+11 </wgt>
<wgt id='1132'> +2.8334982e+11 </wgt>
<wgt id='1133'> +2.8350973e+11 </wgt>
<wgt id='1134'> +2.8340896e+11 </wgt>
<wgt id='1135'> +2.8347271e+11 </wgt>
<wgt id='1136'> +2.8338245e+11 </wgt>
<wgt id='1137'> +2.8327221e+11 </wgt>
<wgt id='1138'> +2.8355156e+11 </wgt>
<wgt id='1139'> +2.8348000e+11 </wgt>
<wgt id='1140'> +2.8363657e+11 </wgt>
<wgt id='1141'> +2.8328136e+11 </wgt>
<wgt id='1142'> +2.8350464e+11 </wgt>
<wgt id='1143'> +2.8359872e+11 </wgt>
<wgt id='1144'> +2.8334180e+11 </wgt>
<wgt id='1145'> +2.8356186e+11 </wgt>
<wgt id='1146'> +2.8342488e+11 </wgt>
<wgt id='1147'> +2.8348024e+11 </wgt>
<wgt id='1148'> +2.8343000e+11 </wgt>
<wgt id='1149'> +2.8343000e+11 </wgt>
<wgt id='1150'> +2.9421742e+11 </wgt>
<wgt id='1151'> +2.7988159e+11 </wgt>
<wgt id='1152'> +2.8239376e+11 </wgt>
<wgt id='1153'> +2.8703017e+11 </wgt>
<wgt id='1154'> +2.8577371e+11 </wgt>
<wgt id='1155'> +2.8980863e+11 </wgt>
<wgt id='1156'> +2.7694738e+11 </wgt>
<wgt id='1157'> +2.7553508e+11 </wgt>
<wgt id='1158'> +2.7740240e+11 </wgt>
<wgt id='1159'> +2.9788357e+11 </wgt>
<wgt id='1160'> +2.8289201e+11 </wgt>
<wgt id='1161'> +2.8561537e+11 </wgt>
<wgt id='1162'> +2.7981213e+11 </wgt>
<wgt id='1163'> +2.8641506e+11 </wgt>
<wgt id='1164'> +2.6934278e+11 </wgt>
<wgt id='1165'> +2.7832623e+11 </wgt>
<wgt id='1166'> +2.8417461e+11 </wgt>
<wgt id='1167'> +2.7904907e+11 </wgt>
<wgt id='1168'> +2.7580450e+11 </wgt>
<wgt id='1169'> +2.7575690e+11 </wgt>
<wgt id='1170'> +2.7940227e+11 </wgt>
<wgt id='1171'> +2.7310416e+11 </wgt>
<wgt id='1172'> +2.7661618e+11 </wgt>
<wgt id='1173'> +2.8682121e+11 </wgt>
<wgt id='1174'> +2.7854132e+11 </wgt>
<wgt id='1175'> +2.7632570e+11 </wgt>
<wgt id='1176'> +2.8634249e+11 </wgt>
<wgt id='1177'> +2.7861231e+11 </wgt>
<wgt id='1178'> +2.8308907e+11 </wgt>
<wgt id='1179'> +2.8086132e+11 </wgt>
<wgt id='1180'> +2.8795155e+11 </wgt>
<wgt id='1181'> +2.8068607e+11 </wgt>
<wgt id='1182'> +2.8081145e+11 </wgt>
<wgt id='1183'> +2.9363716e+11 </wgt>
<wgt id='1184'> +2.8072666e+11 </wgt>
<wgt id='1185'> +2.8410262e+11 </wgt>
<wgt id='1186'> +2.7383020e+11 </wgt>
<wgt id='1187'> +2.8496871e+11 </wgt>
<wgt id='1188'> +2.8193797e+11 </wgt>
<wgt id='1189'> +2.8417557e+11 </wgt>
<wgt id='1190'> +2.8305027e+11 </wgt>
<wgt id='1191'> +2.9342637e+11 </wgt>
<wgt id='1192'> +2.9070394e+11 </wgt>
<wgt id='1193'> +2.9383598e+11 </wgt>
<wgt id='1194'> +2.8326937e+11 </wgt>
<wgt id='1195'> +2.8367049e+11 </wgt>
<wgt id='1196'> +2.9202061e+11 </wgt>
<wgt id='1197'> +2.9283737e+11 </wgt>
<wgt id='1198'> +2.7871177e+11 </wgt>
<wgt id='1199'> +2.8483750e+11 </wgt>
<wgt id='1200'> +2.8388882e+11 </wgt>
<wgt id='1201'> +2.7961662e+11 </wgt>
<wgt id='1202'> +2.8791179e+11 </wgt>
<wgt id='1203'> +2.7872961e+11 </wgt>
<wgt id='1204'> +2.8631172e+11 </wgt>
<wgt id='1205'> +2.8432133e+11 </wgt>
<wgt id='1206'> +2.7754061e+11 </wgt>
<wgt id='1207'> +2.9223003e+11 </wgt>
<wgt id='1208'> +2.7188935e+11 </wgt>
<wgt id='1209'> +2.8022661e+11 </wgt>
<wgt id='1210'> +2.8212705e+11 </wgt>
<wgt id='1211'> +2.8572875e+11 </wgt>
<wgt id='1212'> +2.8328641e+11 </wgt>
<wgt id='1213'> +2.9190500e+11 </wgt>
<wgt id='1214'> +2.7606617e+11 </wgt>
<wgt id='1215'> +2.8975623e+11 </wgt>
<wgt id='1216'> +2.8498025e+11 </wgt>
<wgt id='1217'> +2.7627937e+11 </wgt>
<wgt id='1218'> +2.8466092e+11 </wgt>
<wgt id='1219'> +2.9399335e+11 </wgt>
<wgt id='1220'> +2.7785928e+11 </wgt>
<wgt id='1221'> +2.7562305e+11 </wgt>
<wgt id='1222'> +2.7963460e+11 </wgt>
<wgt id='1223'> +2.7276914e+11 </wgt>
<wgt id='1224'> +2.8333598e+11 </wgt>
<wgt id='1225'> +2.8834951e+11 </wgt>
<wgt id='1226'> +2.8917320e+11 </wgt>
<wgt id='1227'> +2.7553597e+11 </wgt>
<wgt id='1228'> +2.8160514e+11 </wgt>
<wgt id='1229'> +3.0233182e+11 </wgt>
<wgt id='1230'> +2.9263293e+11 </wgt>
<wgt id='1231'> +2.7832623e+11 </wgt>
<wgt id='1232'> +2.8827208e+11 </wgt>
<wgt id='1233'> +2.7741061e+11 </wgt>
<wgt id='1234'> +2.7661310e+11 </wgt>
<wgt id='1235'> +3.0156218e+11 </wgt>
<wgt id='1236'> +2.7675082e+11 </wgt>
<wgt id='1237'> +2.8927121e+11 </wgt>
<wgt id='1238'> +2.8726364e+11 </wgt>
<wgt id='1239'> +2.8980486e+11 </wgt>
<wgt id='1240'> +2.8320100e+11 </wgt>
<wgt id='1241'> +2.8284483e+11 </wgt>
<wgt id='1242'> +2.8029853e+11 </wgt>
<wgt id='1243'> +2.8779772e+11 </wgt>
<wgt id='1244'> +2.8243467e+11 </wgt>
<wgt id='1245'> +2.8097765e+11 </wgt>
<wgt id='1246'> +3.0622254e+11 </wgt>
<wgt id='1247'> +2.8275448e+11 </wgt>
<wgt id='1248'> +2.7445067e+11 </wgt>
<wgt id='1249'> +2.7686462e+11 </wgt>
<wgt id='1250'> +2.9236479e+11 </wgt>
<wgt id='1251'> +2.9857872e+11 </wgt>
<wgt id='1252'> +2.8675591e+11 </wgt>
<wgt id='1253'> +2.8568687e+11 </wgt>
<wgt id='1254'> +2.8795128e+11 </wgt>
<wgt id='1255'> +2.9834826e+11 </wgt>
<wgt id='1256'> +2.9702668e+11 </wgt>
<wgt id='1257'> +2.8922901e+11 </wgt>
<wgt id='1258'> +2.9760043e+11 </wgt>
<wgt id='1259'> +2.9557365e+11 </wgt>
<wgt id='1260'> +3.2481911e+11 </wgt>
<wgt id='1261'> +3.1305577e+11 </wgt>
<wgt id='1262'> +2.8983855e+11 </wgt>
<wgt id='1263'> +2.9661939e+11 </wgt>
<wgt id='1264'> +2.9883895e+11 </wgt>
<wgt id='1265'> +2.9701734e+11 </wgt>
<wgt id='1266'> +2.9579066e+11 </wgt>
<wgt id='1267'> +3.2155852e+11 </wgt>
<wgt id='1268'> +2.9244840e+11 </wgt>
<wgt id='1269'> +2.8649603e+11 </wgt>
<wgt id='1270'> +2.9372789e+11 </wgt>
<wgt id='1271'> +2.7581965e+11 </wgt>
<wgt id='1272'> +2.9254990e+11 </wgt>
<wgt id='1273'> +2.9080443e+11 </wgt>
<wgt id='1274'> +2.8646185e+11 </wgt>
<wgt id='1275'> +2.9687805e+11 </wgt>
<wgt id='1276'> +2.9624421e+11 </wgt>
<wgt id='1277'> +2.9151054e+11 </wgt>
<wgt id='1278'> +2.8956604e+11 </wgt>
<wgt id='1279'> +2.8019664e+11 </wgt>
<wgt id='1280'> +2.9077328e+11 </wgt>
<wgt id='1281'> +2.8485654e+11 </wgt>
<wgt id='1282'> +2.9566780e+11 </wgt>
<wgt id='1283'> +2.9802859e+11 </wgt>
<wgt id='1284'> +3.1284157e+11 </wgt>
<wgt id='1285'> +3.0749392e+11 </wgt>
<wgt id='1286'> +3.2807617e+11 </wgt>
<wgt id='1287'> +3.0293059e+11 </wgt>
<wgt id='1288'> +3.2459118e+11 </wgt>
<wgt id='1289'> +3.1242567e+11 </wgt>
<wgt id='1290'> +3.1088237e+11 </wgt>
<wgt id='1291'> +2.7730940e+11 </wgt>
<wgt id='1292'> +2.9787432e+11 </wgt>
<wgt id='1293'> +3.0030241e+11 </wgt>
<wgt id='1294'> +3.1509286e+11 </wgt>
<wgt id='1295'> +3.0109918e+11 </wgt>
<wgt id='1296'> +3.1713783e+11 </wgt>
<wgt id='1297'> +2.9398279e+11 </wgt>
<wgt id='1298'> +2.8703156e+11 </wgt>
<wgt id='1299'> +2.9907375e+11 </wgt>
<wgt id='1300'> +2.8745334e+11 </wgt>
<wgt id='1301'> +2.7947002e+11 </wgt>
<wgt id='1302'> +2.7806942e+11 </wgt>
<wgt id='1303'> +2.9858012e+11 </wgt>
<wgt id='1304'> +3.0918235e+11 </wgt>
<wgt id='1305'> +2.9775035e+11 </wgt>
<wgt id='1306'> +3.0471932e+11 </wgt>
<wgt id='1307'> +2.9984348e+11 </wgt>
<wgt id='1308'> +3.2560705e+11 </wgt>
<wgt id='1309'> +2.9605450e+11 </wgt>
<wgt id='1310'> +3.0164748e+11 </wgt>
<wgt id='1311'> +3.0528673e+11 </wgt>
<wgt id='1312'> +3.0054346e+11 </wgt>
<wgt id='1313'> +2.9743436e+11 </wgt>
<wgt id='1314'> +3.0152193e+11 </wgt>
<wgt id='1315'> +2.8493501e+11 </wgt>
<wgt id='1316'> +2.9825844e+11 </wgt>
<wgt id='1317'> +3.0220300e+11 </wgt>
<wgt id='1318'> +2.8760885e+11 </wgt>
<wgt id='1319'> +3.0409256e+11 </wgt>
<wgt id='1320'> +3.0999404e+11 </wgt>
<wgt id='1321'> +2.9407939e+11 </wgt>
<wgt id='1322'> +2.9809710e+11 </wgt>
<wgt id='1323'> +2.9634505e+11 </wgt>
<wgt id='1324'> +3.0148203e+11 </wgt>
<wgt id='1325'> +3.1048068e+11 </wgt>
<wgt id='1326'> +3.0370171e+11 </wgt>
<wgt id='1327'> +2.9687752e+11 </wgt>
<wgt id='1328'> +3.0008018e+11 </wgt>
<wgt id='1329'> +2.9717773e+11 </wgt>
<wgt id='1330'> +2.8893194e+11 </wgt>
<wgt id='1331'> +3.1917567e+11 </wgt>
<wgt id='1332'> +2.8730400e+11 </wgt>
<wgt id='1333'> +3.0037299e+11 </wgt>
<wgt id='1334'> +3.1349486e+11 </wgt>
<wgt id='1335'> +2.9210370e+11 </wgt>
<wgt id='1336'> +3.0425336e+11 </wgt>
<wgt id='1337'> +3.0783298e+11 </wgt>
<wgt id='1338'> +2.8876495e+11 </wgt>
<wgt id='1339'> +3.1866248e+11 </wgt>
<wgt id='1340'> +3.0166619e+11 </wgt>
<wgt id='1341'> +3.0709883e+11 </wgt>
<wgt id='1342'> +3.1221909e+11 </wgt>
<wgt id='1343'> +3.0914713e+11 </wgt>
<wgt id='1344'> +3.0579473e+11 </wgt>
<wgt id='1345'> +2.7622915e+11 </wgt>
<wgt id='1346'> +2.9978205e+11 </wgt>
<wgt id='1347'> +2.8709015e+11 </wgt>
<wgt id='1348'> +2.8773646e+11 </wgt>
<wgt id='1349'> +2.8814330e+11 </wgt>
<wgt id='1350'> +3.0111810e+11 </wgt>
<wgt id='1351'> +2.9492822e+11 </wgt>
<wgt id='1352'> +3.0045156e+11 </wgt>
<wgt id='1353'> +2.9710843e+11 </wgt>
<wgt id='1354'> +3.0661635e+11 </wgt>
<wgt id='1355'> +2.7518015e+11 </wgt>
<wgt id='1356'> +2.7790201e+11 </wgt>
<wgt id='1357'> +2.7582665e+11 </wgt>
<wgt id='1358'> +2.7280297e+11 </wgt>
<wgt id='1359'> +2.7571356e+11 </wgt>
<wgt id='1360'> +2.6889692e+11 </wgt>
<wgt id='1361'> +2.7494122e+11 </wgt>
<wgt id='1362'> +2.7830967e+11 </wgt>
<wgt id='1363'> +2.6980108e+11 </wgt>
<wgt id='1364'> +2.8088961e+11 </wgt>
<wgt id='1365'> +2.7289741e+11 </wgt>
<wgt id='1366'> +2.7434432e+11 </wgt>
<wgt id='1367'> +2.7590890e+11 </wgt>
<wgt id='1368'> +2.7531286e+11 </wgt>
<wgt id='1369'> +2.7884983e+11 </wgt>
<wgt id='1370'> +2.7329285e+11 </wgt>
<wgt id='1371'> +2.7372997e+11 </wgt>
<wgt id='1372'> +2.7917154e+11 </wgt>
<wgt id='1373'> +2.7864913e+11 </wgt>
<wgt id='1374'> +2.6714284e+11 </wgt>
<wgt id='1375'> +2.7461320e+11 </wgt>
<wgt id='1376'> +2.7563057e+11 </wgt>
<wgt id='1377'> +2.7540472e+11 </wgt>
<wgt id='1378'> +2.7181175e+11 </wgt>
<wgt id='1379'> +2.7365631e+11 </wgt>
<wgt id='1380'> +2.7332086e+11 </wgt>
<wgt id='1381'> +2.8037690e+11 </wgt>
<wgt id='1382'> +2.7467703e+11 </wgt>
<wgt id='1383'> +2.7458515e+11 </wgt>
<wgt id='1384'> +2.7313878e+11 </wgt>
<wgt id='1385'> +2.7308646e+11 </wgt>
<wgt id='1386'> +2.7637927e+11 </wgt>
<wgt id='1387'> +2.7398540e+11 </wgt>
<wgt id='1388'> +2.7117221e+11 </wgt>
<wgt id='1389'> +2.7378524e+11 </wgt>
<wgt id='1390'> +2.7487969e+11 </wgt>
<wgt id='1391'> +2.7297029e+11 </wgt>
<wgt id='1392'> +2.7293293e+11 </wgt>
<wgt id='1393'> +2.7375322e+11 </wgt>
<wgt id='1394'> +2.7307523e+11 </wgt>
<wgt id='1395'> +2.7078986e+11 </wgt>
<wgt id='1396'> +2.7606028e+11 </wgt>
<wgt id='1397'> +2.7588833e+11 </wgt>
<wgt id='1398'> +2.7611510e+11 </wgt>
<wgt id='1399'> +2.7129612e+11 </wgt>
<wgt id='1400'> +2.7185029e+11 </wgt>
<wgt id='1401'> +2.7426567e+11 </wgt>
<wgt id='1402'> +2.7829104e+11 </wgt>
<wgt id='1403'> +2.7914986e+11 </wgt>
<wgt id='1404'> +2.7406422e+11 </wgt>
<wgt id='1405'> +2.8130740e+11 </wgt>
<wgt id='1406'> +2.7543429e+11 </wgt>
<wgt id='1407'> +2.7571847e+11 </wgt>
<wgt id='1408'> +2.7879048e+11 </wgt>
<wgt id='1409'> +2.7266285e+11 </wgt>
<wgt id='1410'> +2.7163890e+11 </wgt>
<wgt id='1411'> +2.7487984e+11 </wgt>
<wgt id='1412'> +2.7373371e+11 </wgt>
<wgt id='1413'> +2.7240051e+11 </wgt>
<wgt id='1414'> +2.7718272e+11 </wgt>
<wgt id='1415'> +2.8024361e+11 </wgt>
<wgt id='1416'> +2.7806347e+11 </wgt>
<wgt id='1417'> +2.6933658e+11 </wgt>
<wgt id='1418'> +2.7641187e+11 </wgt>
<wgt id='1419'> +2.7884972e+11 </wgt>
<wgt id='1420'> +2.7415891e+11 </wgt>
<wgt id='1421'> +2.8123291e+11 </wgt>
<wgt id='1422'> +2.6791964e+11 </wgt>
<wgt id='1423'> +2.8031275e+11 </wgt>
<wgt id='1424'> +2.7631130e+11 </wgt>
<wgt id='1425'> +2.7556974e+11 </wgt>
<wgt id='1426'> +2.7825988e+11 </wgt>
<wgt id='1427'> +2.7502216e+11 </wgt>
<wgt id='1428'> +2.7489323e+11 </wgt>
<wgt id='1429'> +2.7212143e+11 </wgt>
<wgt id='1430'> +2.7070657e+11 </wgt>
<wgt id='1431'> +2.7027017e+11 </wgt>
<wgt id='1432'> +2.7639902e+11 </wgt>
<wgt id='1433'> +2.7513362e+11 </wgt>
<wgt id='1434'> +2.8220546e+11 </wgt>
<wgt id='1435'> +2.7422390e+11 </wgt>
<wgt id='1436'> +2.7911099e+11 </wgt>
<wgt id='1437'> +2.7713520e+11 </wgt>
<wgt id='1438'> +2.7359133e+11 </wgt>
<wgt id='1439'> +2.7674618e+11 </wgt>
<wgt id='1440'> +2.7922649e+11 </wgt>
<wgt id='1441'> +2.7438174e+11 </wgt>
<wgt id='1442'> +2.8204748e+11 </wgt>
<wgt id='1443'> +2.7320602e+11 </wgt>
<wgt id='1444'> +2.7451711e+11 </wgt>
<wgt id='1445'> +2.7759820e+11 </wgt>
<wgt id='1446'> +2.7827780e+11 </wgt>
<wgt id='1447'> +2.7163482e+11 </wgt>
<wgt id='1448'> +2.7756025e+11 </wgt>
<wgt id='1449'> +2.7700727e+11 </wgt>
<wgt id='1450'> +2.7368898e+11 </wgt>
<wgt id='1451'> +2.7653717e+11 </wgt>
<wgt id='1452'> +2.7800531e+11 </wgt>
<wgt id='1453'> +2.7908625e+11 </wgt>
<wgt id='1454'> +2.6824450e+11 </wgt>
<wgt id='1455'> +2.7431772e+11 </wgt>
<wgt id='1456'> +2.7436048e+11 </wgt>
<wgt id='1457'> +2.7401202e+11 </wgt>
<wgt id='1458'> +2.7773062e+11 </wgt>
<wgt id='1459'> +3.0543179e+11 </wgt>
<wgt id='1460'> +3.0071127e+11 </wgt>
<wgt id='1461'> +3.4965320e+11 </wgt>
<wgt id='1462'> +2.9864692e+11 </wgt>
<wgt id='1463'> +2.9889082e+11 </wgt>
<wgt id='1464'> +2.9833410e+11 </wgt>
<wgt id='1465'> +2.9870911e+11 </wgt>
<wgt id='1466'> +2.9859008e+11 </wgt>
<wgt id='1467'> +2.9880095e+11 </wgt>
<wgt id='1468'> +2.9839417e+11 </wgt>
<wgt id='1469'> +2.9820150e+11 </wgt>
<wgt id='1470'> +2.9900868e+11 </wgt>
<wgt id='1471'> +2.9911839e+11 </wgt>
<wgt id='1472'> +2.9816130e+11 </wgt>
<wgt id='1473'> +2.9980099e+11 </wgt>
<wgt id='1474'> +2.9753845e+11 </wgt>
<wgt id='1475'> +2.9974657e+11 </wgt>
<wgt id='1476'> +2.9786729e+11 </wgt>
<wgt id='1477'> +2.9808014e+11 </wgt>
<wgt id='1478'> +2.9997089e+11 </wgt>
<wgt id='1479'> +2.9811257e+11 </wgt>
<wgt id='1480'> +2.9902064e+11 </wgt>
<wgt id='1481'> +2.9821266e+11 </wgt>
<wgt id='1482'> +2.9923272e+11 </wgt>
<wgt id='1483'> +2.9874024e+11 </wgt>
<wgt id='1484'> +2.9851465e+11 </wgt>
<wgt id='1485'> +2.9885016e+11 </wgt>
<wgt id='1486'> +2.9815749e+11 </wgt>
<wgt id='1487'> +2.9890229e+11 </wgt>
<wgt id='1488'> +2.9832636e+11 </wgt>
<wgt id='1489'> +2.9829342e+11 </wgt>
<wgt id='1490'> +2.9960524e+11 </wgt>
<wgt id='1491'> +3.0355859e+11 </wgt>
<wgt id='1492'> +2.9590626e+11 </wgt>
<wgt id='1493'> +2.9513851e+11 </wgt>
<wgt id='1494'> +3.0964408e+11 </wgt>
<wgt id='1495'> +2.9799046e+11 </wgt>
<wgt id='1496'> +2.9935113e+11 </wgt>
<wgt id='1497'> +2.9884519e+11 </wgt>
<wgt id='1498'> +2.9837588e+11 </wgt>
<wgt id='1499'> +3.0053275e+11 </wgt>
<wgt id='1500'> +2.9761548e+11 </wgt>
<wgt id='1501'> +2.9910034e+11 </wgt>
<wgt id='1502'> +2.9744539e+11 </wgt>
<wgt id='1503'> +2.9541596e+11 </wgt>
<wgt id='1504'> +3.0209854e+11 </wgt>
<wgt id='1505'> +2.9963028e+11 </wgt>
<wgt id='1506'> +2.9769864e+11 </wgt>
<wgt id='1507'> +3.0017166e+11 </wgt>
<wgt id='1508'> +2.9740679e+11 </wgt>
<wgt id='1509'> +2.9924199e+11 </wgt>
<wgt id='1510'> +2.9609170e+11 </wgt>
<wgt id='1511'> +2.9977097e+11 </wgt>
<wgt id='1512'> +2.9832083e+11 </wgt>
<wgt id='1513'> +2.9856192e+11 </wgt>
<wgt id='1514'> +2.9873083e+11 </wgt>
<wgt id='1515'> +3.0118698e+11 </wgt>
<wgt id='1516'> +2.9901274e+11 </wgt>
<wgt id='1517'> +2.9826066e+11 </wgt>
<wgt id='1518'> +2.9899188e+11 </wgt>
<wgt id='1519'> +2.9698339e+11 </wgt>
<wgt id='1520'> +2.9983016e+11 </wgt>
<wgt id='1521'> +2.9783273e+11 </wgt>
<wgt id='1522'> +2.9913074e+11 </wgt>
<wgt id='1523'> +2.9997762e+11 </wgt>
<wgt id='1524'> +3.0003720e+11 </wgt>
<wgt id='1525'> +2.9982139e+11 </wgt>
<wgt id='1526'> +2.9950233e+11 </wgt>
<wgt id='1527'> +2.9864692e+11 </wgt>
<wgt id='1528'> +2.9837399e+11 </wgt>
<wgt id='1529'> +2.9841852e+11 </wgt>
<wgt id='1530'> +2.9469321e+11 </wgt>
<wgt id='1531'> +2.9629568e+11 </wgt>
<wgt id='1532'> +2.9391849e+11 </wgt>
<wgt id='1533'> +2.9169727e+11 </wgt>
<wgt id='1534'> +2.9469319e+11 </wgt>
<wgt id='1535'> +2.9868391e+11 </wgt>
<wgt id='1536'> +2.9367572e+11 </wgt>
<wgt id='1537'> +2.9621538e+11 </wgt>
<wgt id='1538'> +2.9315636e+11 </wgt>
<wgt id='1539'> +3.0227857e+11 </wgt>
<wgt id='1540'> +2.9560850e+11 </wgt>
<wgt id='1541'> +2.9677595e+11 </wgt>
<wgt id='1542'> +2.9626377e+11 </wgt>
<wgt id='1543'> +2.9748910e+11 </wgt>
<wgt id='1544'> +2.9438105e+11 </wgt>
<wgt id='1545'> +2.9431341e+11 </wgt>
<wgt id='1546'> +2.9236017e+11 </wgt>
<wgt id='1547'> +2.9860285e+11 </wgt>
<wgt id='1548'> +2.9436825e+11 </wgt>
<wgt id='1549'> +2.9284420e+11 </wgt>
<wgt id='1550'> +2.9712285e+11 </wgt>
<wgt id='1551'> +2.9689180e+11 </wgt>
<wgt id='1552'> +2.9572820e+11 </wgt>
<wgt id='1553'> +2.9838992e+11 </wgt>
<wgt id='1554'> +2.9616702e+11 </wgt>
<wgt id='1555'> +2.9694505e+11 </wgt>
<wgt id='1556'> +2.9869033e+11 </wgt>
<wgt id='1557'> +2.9520558e+11 </wgt>
<wgt id='1558'> +2.9634594e+11 </wgt>
<wgt id='1559'> +2.9417269e+11 </wgt>
<wgt id='1560'> +2.9504483e+11 </wgt>
<wgt id='1561'> +2.9271267e+11 </wgt>
<wgt id='1562'> +2.9493105e+11 </wgt>
<wgt id='1563'> +2.9630031e+11 </wgt>
<wgt id='1564'> +2.9586291e+11 </wgt>
<wgt id='1565'> +2.9838716e+11 </wgt>
<wgt id='1566'> +2.9633409e+11 </wgt>
<wgt id='1567'> +2.9973344e+11 </wgt>
<wgt id='1568'> +2.9622850e+11 </wgt>
<wgt id='1569'> +2.9592991e+11 </wgt>
<wgt id='1570'> +3.0210495e+11 </wgt>
<wgt id='1571'> +2.9612122e+11 </wgt>
<wgt id='1572'> +2.9824195e+11 </wgt>
<wgt id='1573'> +2.9947284e+11 </wgt>
<wgt id='1574'> +2.6685862e+11 </wgt>
<wgt id='1575'> +2.6693104e+11 </wgt>
<wgt id='1576'> +2.6679065e+11 </wgt>
<wgt id='1577'> +2.6687701e+11 </wgt>
<wgt id='1578'> +2.6747146e+11 </wgt>
<wgt id='1579'> +2.6771628e+11 </wgt>
<wgt id='1580'> +2.6748914e+11 </wgt>
<wgt id='1581'> +2.6624454e+11 </wgt>
<wgt id='1582'> +2.6594112e+11 </wgt>
<wgt id='1583'> +2.6640508e+11 </wgt>
<wgt id='1584'> +2.6744178e+11 </wgt>
<wgt id='1585'> +2.6705398e+11 </wgt>
<wgt id='1586'> +2.6585609e+11 </wgt>
<wgt id='1587'> +2.6610300e+11 </wgt>
<wgt id='1588'> +2.6560446e+11 </wgt>
<wgt id='1589'> +2.6659626e+11 </wgt>
<wgt id='1590'> +2.6667742e+11 </wgt>
<wgt id='1591'> +2.6692803e+11 </wgt>
<wgt id='1592'> +2.6582865e+11 </wgt>
<wgt id='1593'> +2.6596485e+11 </wgt>
<wgt id='1594'> +2.6770031e+11 </wgt>
<wgt id='1595'> +2.6458506e+11 </wgt>
<wgt id='1596'> +2.7052055e+11 </wgt>
<wgt id='1597'> +2.6860718e+11 </wgt>
<wgt id='1598'> +2.6881930e+11 </wgt>
<wgt id='1599'> +2.6408118e+11 </wgt>
<wgt id='1600'> +2.7133570e+11 </wgt>
<wgt id='1601'> +2.6899843e+11 </wgt>
<wgt id='1602'> +2.6691276e+11 </wgt>
<wgt id='1603'> +2.7776925e+11 </wgt>
<wgt id='1604'> +2.6683033e+11 </wgt>
</rwgt>
</event>
<event>
 9      1 +2.8343000e+11 1.40000200e+03 7.81738600e-03 7.88881100e-02
       21 -1    0    0  504  503 +0.0000000000e+00 +0.0000000000e+00 +4.1683702445e+02 4.1683702445e+02 0.0000000000e+00 0.0000e+00 -1.0000e+00
       21 -1    0    0  503  504 -0.0000000000e+00 -0.0000000000e+00 -1.1755221254e+03 1.1755221254e+03 0.0000000000e+00 0.0000e+00 -1.0000e+00
       45  2    1    2    0    0 +5.6843418861e-14 -5.6843418861e-14 -7.5868510096e+02 1.5923591499e+03 1.4000016356e+03 0.0000e+00 0.0000e+00
       25  2    3    3    0    0 -4.4068375620e+02 +4.7986924682e+02 -1.1730208248e+02 6.7369211181e+02 1.2499846376e+02 0.0000e+00 0.0000e+00
       35  2    3    3    0    0 +4.4068375620e+02 -4.7986924682e+02 -6.4138301848e+02 9.1866703805e+02 9.0001574387e+01 0.0000e+00 0.0000e+00
        5  1    5    5  501    0 -1.8778081403e+00 -5.2839178653e+00 -1.5855298605e+01 1.7337653857e+01 4.2140000000e+00 0.0000e+00 -1.0000e+00
       -5  1    5    5    0  501 +4.4256156434e+02 -4.7458532895e+02 -6.2552771987e+02 9.0132938419e+02 4.2140000000e+00 0.0000e+00 -1.0000e+00
        5  1    4    4  502    0 -4.2462195961e+02 +4.6434763500e+02 -8.6118664569e+01 6.3510370562e+02 4.2140000000e+00 0.0000e+00 -1.0000e+00
       -5  1    4    4    0  502 -1.6061796587e+01 +1.5521611815e+01 -3.1183417915e+01 3.8588406184e+01 4.2140000000e+00 0.0000e+00 -1.0000e+00
<mgrwt>
<rscale>  0 0.14000016E+04</rscale>
<asrwt>0</asrwt>
<pdfrwt beam="1">  1       21 0.64128773E-01 0.14000016E+04</pdfrwt>
<pdfrwt beam="2">  1       21 0.18084956E+00 0.14000016E+04</pdfrwt>
<totfact> 0.28338182E+02</totfact>
</mgrwt>
<rwgt>
<wgt id='1001'> +2.8343000e+11 </wgt>
<wgt id='1002'> +2.8665227e+11 </wgt>
<wgt id='1003'> +2.8659837e+11 </wgt>
<wgt id='1004'> +3.2243775e+11 </wgt>
<wgt id='1005'> +2.8343000e+11 </wgt>
<wgt id='1006'> +2.8343000e+11 </wgt>
<wgt id='1007'> +2.8665227e+11 </wgt>
<wgt id='1008'> +2.8659837e+11 </wgt>
<wgt id='1009'> +3.2243775e+11 </wgt>
<wgt id='1010'> +2.8343000e+11 </wgt>
<wgt id='1011'> +2.8343000e+11 </wgt>
<wgt id='1012'> +2.8665227e+11 </wgt>
<wgt id='1013'> +2.8659837e+11 </wgt>
<wgt id='1014'> +3.2243775e+11 </wgt>
<wgt id='1015'> +2.8343000e+11 </wgt>
<wgt id='1016'> +2.5397929e+11 </wgt>
<wgt id='1017'> +2.5669771e+11 </wgt>
<wgt id='1018'> +2.5665226e+11 </wgt>
<wgt id='1019'> +2.8659837e+11 </wgt>
<wgt id='1020'> +2.5397929e+11 </wgt>
<wgt id='1021'> +2.5397929e+11 </wgt>
<wgt id='1022'> +2.5669771e+11 </wgt>
<wgt id='1023'> +2.5665226e+11 </wgt>
<wgt id='1024'> +2.8659837e+11 </wgt>
<wgt id='1025'> +2.5397929e+11 </wgt>
<wgt id='1026'> +2.5397929e+11 </wgt>
<wgt id='1027'> +2.5669771e+11 </wgt>
<wgt id='1028'> +2.5665226e+11 </wgt>
<wgt id='1029'> +2.8659837e+11 </wgt>
<wgt id='1030'> +2.5397929e+11 </wgt>
<wgt id='1031'> +3.1862597e+11 </wgt>
<wgt id='1032'> +3.2250264e+11 </wgt>
<wgt id='1033'> +3.2243775e+11 </wgt>
<wgt id='1034'> +3.6571326e+11 </wgt>
<wgt id='1035'> +3.1862597e+11 </wgt>
<wgt id='1036'> +3.1862597e+11 </wgt>
<wgt id='1037'> +3.2250264e+11 </wgt>
<wgt id='1038'> +3.2243775e+11 </wgt>
<wgt id='1039'> +3.6571326e+11 </wgt>
<wgt id='1040'> +3.1862597e+11 </wgt>
<wgt id='1041'> +3.1862597e+11 </wgt>
<wgt id='1042'> +3.2250264e+11 </wgt>
<wgt id='1043'> +3.2243775e+11 </wgt>
<wgt id='1044'> +3.6571326e+11 </wgt>
<wgt id='1045'> +3.1862597e+11 </wgt>
<wgt id='1046'> +2.8343000e+11 </wgt>
<wgt id='1047'> +2.8343000e+11 </wgt>
<wgt id='1048'> +2.8343000e+11 </wgt>
<wgt id='1049'> +2.8286269e+11 </wgt>
<wgt id='1050'> +2.8323574e+11 </wgt>
<wgt id='1051'> +2.8327387e+11 </wgt>
<wgt id='1052'> +2.8432408e+11 </wgt>
<wgt id='1053'> +2.8166549e+11 </wgt>
<wgt id='1054'> +2.8371952e+11 </wgt>
<wgt id='1055'> +2.8220759e+11 </wgt>
<wgt id='1056'> +2.8215159e+11 </wgt>
<wgt id='1057'> +2.8337079e+11 </wgt>
<wgt id='1058'> +2.8278645e+11 </wgt>
<wgt id='1059'> +2.8526178e+11 </wgt>
<wgt id='1060'> +2.8379775e+11 </wgt>
<wgt id='1061'> +2.8395128e+11 </wgt>
<wgt id='1062'> +2.8429026e+11 </wgt>
<wgt id='1063'> +2.8454158e+11 </wgt>
<wgt id='1064'> +2.8406537e+11 </wgt>
<wgt id='1065'> +2.8467854e+11 </wgt>
<wgt id='1066'> +2.8131359e+11 </wgt>
<wgt id='1067'> +2.8182107e+11 </wgt>
<wgt id='1068'> +2.8341969e+11 </wgt>
<wgt id='1069'> +2.8257597e+11 </wgt>
<wgt id='1070'> +2.8396552e+11 </wgt>
<wgt id='1071'> +2.8302502e+11 </wgt>
<wgt id='1072'> +2.8254432e+11 </wgt>
<wgt id='1073'> +2.8312865e+11 </wgt>
<wgt id='1074'> +2.8305651e+11 </wgt>
<wgt id='1075'> +2.8436427e+11 </wgt>
<wgt id='1076'> +2.8152438e+11 </wgt>
<wgt id='1077'> +2.8203697e+11 </wgt>
<wgt id='1078'> +2.8413227e+11 </wgt>
<wgt id='1079'> +2.8218981e+11 </wgt>
<wgt id='1080'> +2.8318189e+11 </wgt>
<wgt id='1081'> +2.8294742e+11 </wgt>
<wgt id='1082'> +2.8220866e+11 </wgt>
<wgt id='1083'> +2.8405914e+11 </wgt>
<wgt id='1084'> +2.8393130e+11 </wgt>
<wgt id='1085'> +2.8273922e+11 </wgt>
<wgt id='1086'> +2.8318532e+11 </wgt>
<wgt id='1087'> +2.8323883e+11 </wgt>
<wgt id='1088'> +2.8296483e+11 </wgt>
<wgt id='1089'> +2.8256575e+11 </wgt>
<wgt id='1090'> +2.8405805e+11 </wgt>
<wgt id='1091'> +2.8353905e+11 </wgt>
<wgt id='1092'> +2.8372816e+11 </wgt>
<wgt id='1093'> +2.8343354e+11 </wgt>
<wgt id='1094'> +2.8257424e+11 </wgt>
<wgt id='1095'> +2.8363804e+11 </wgt>
<wgt id='1096'> +2.8342877e+11 </wgt>
<wgt id='1097'> +2.8293519e+11 </wgt>
<wgt id='1098'> +2.8314116e+11 </wgt>
<wgt id='1099'> +2.8320410e+11 </wgt>
<wgt id='1100'> +2.8405793e+11 </wgt>
<wgt id='1101'> +2.8350188e+11 </wgt>
<wgt id='1102'> +2.8333427e+11 </wgt>
<wgt id='1103'> +2.8287870e+11 </wgt>
<wgt id='1104'> +2.8320859e+11 </wgt>
<wgt id='1105'> +2.8352125e+11 </wgt>
<wgt id='1106'> +2.8376359e+11 </wgt>
<wgt id='1107'> +2.8353402e+11 </wgt>
<wgt id='1108'> +2.8323935e+11 </wgt>
<wgt id='1109'> +2.8324360e+11 </wgt>
<wgt id='1110'> +2.8370221e+11 </wgt>
<wgt id='1111'> +2.8361145e+11 </wgt>
<wgt id='1112'> +2.8337723e+11 </wgt>
<wgt id='1113'> +2.8376900e+11 </wgt>
<wgt id='1114'> +2.8313683e+11 </wgt>
<wgt id='1115'> +2.8309226e+11 </wgt>
<wgt id='1116'> +2.8396260e+11 </wgt>
<wgt id='1117'> +2.8335885e+11 </wgt>
<wgt id='1118'> +2.8365568e+11 </wgt>
<wgt id='1119'> +2.8310728e+11 </wgt>
<wgt id='1120'> +2.8316860e+11 </wgt>
<wgt id='1121'> +2.8351439e+11 </wgt>
<wgt id='1122'> +2.8314571e+11 </wgt>
<wgt id='1123'> +2.8337844e+11 </wgt>
<wgt id='1124'> +2.8342752e+11 </wgt>
<wgt id='1125'> +2.8361955e+11 </wgt>
<wgt id='1126'> +2.8354642e+11 </wgt>
<wgt id='1127'> +2.8328519e+11 </wgt>
<wgt id='1128'> +2.8341226e+11 </wgt>
<wgt id='1129'> +2.8331076e+11 </wgt>
<wgt id='1130'> +2.8345974e+11 </wgt>
<wgt id='1131'> +2.8386235e+11 </wgt>
<wgt id='1132'> +2.8334025e+11 </wgt>
<wgt id='1133'> +2.8355110e+11 </wgt>
<wgt id='1134'> +2.8341741e+11 </wgt>
<wgt id='1135'> +2.8346562e+11 </wgt>
<wgt id='1136'> +2.8335117e+11 </wgt>
<wgt id='1137'> +2.8323635e+11 </wgt>
<wgt id='1138'> +2.8356928e+11 </wgt>
<wgt id='1139'> +2.8350073e+11 </wgt>
<wgt id='1140'> +2.8367925e+11 </wgt>
<wgt id='1141'> +2.8322374e+11 </wgt>
<wgt id='1142'> +2.8348120e+11 </wgt>
<wgt id='1143'> +2.8361280e+11 </wgt>
<wgt id='1144'> +2.8332823e+11 </wgt>
<wgt id='1145'> +2.8357490e+11 </wgt>
<wgt id='1146'> +2.8346820e+11 </wgt>
<wgt id='1147'> +2.8348682e+11 </wgt>
<wgt id='1148'> +2.8343000e+11 </wgt>
<wgt id='1149'> +2.8343000e+11 </wgt>
<wgt id='1150'> +2.9726800e+11 </wgt>
<wgt id='1151'> +2.7724954e+11 </wgt>
<wgt id='1152'> +2.7650207e+11 </wgt>
<wgt id='1153'> +2.8589499e+11 </wgt>
<wgt id='1154'> +2.8196103e+11 </wgt>
<wgt id='1155'> +2.9344428e+11 </wgt>
<wgt id='1156'> +2.7793847e+11 </wgt>
<wgt id='1157'> +2.7459631e+11 </wgt>
<wgt id='1158'> +2.7703273e+11 </wgt>
<wgt id='1159'> +2.9994753e+11 </wgt>
<wgt id='1160'> +2.8529707e+11 </wgt>
<wgt id='1161'> +2.8830135e+11 </wgt>
<wgt id='1162'> +2.8496777e+11 </wgt>
<wgt id='1163'> +2.8639985e+11 </wgt>
<wgt id='1164'> +2.7325210e+11 </wgt>
<wgt id='1165'> +2.7808165e+11 </wgt>
<wgt id='1166'> +2.8315563e+11 </wgt>
<wgt id='1167'> +2.7799081e+11 </wgt>
<wgt id='1168'> +2.7431129e+11 </wgt>
<wgt id='1169'> +2.7590004e+11 </wgt>
<wgt id='1170'> +2.8403715e+11 </wgt>
<wgt id='1171'> +2.7300488e+11 </wgt>
<wgt id='1172'> +2.7461251e+11 </wgt>
<wgt id='1173'> +2.8548983e+11 </wgt>
<wgt id='1174'> +2.7683501e+11 </wgt>
<wgt id='1175'> +2.7833371e+11 </wgt>
<wgt id='1176'> +2.8682787e+11 </wgt>
<wgt id='1177'> +2.7815984e+11 </wgt>
<wgt id='1178'> +2.8411565e+11 </wgt>
<wgt id='1179'> +2.8368796e+11 </wgt>
<wgt id='1180'> +2.8697256e+11 </wgt>
<wgt id='1181'> +2.8993818e+11 </wgt>
<wgt id='1182'> +2.8009649e+11 </wgt>
<wgt id='1183'> +2.8971167e+11 </wgt>
<wgt id='1184'> +2.8211750e+11 </wgt>
<wgt id='1185'> +2.8790483e+11 </wgt>
<wgt id='1186'> +2.7741572e+11 </wgt>
<wgt id='1187'> +2.8433015e+11 </wgt>
<wgt id='1188'> +2.8812140e+11 </wgt>
<wgt id='1189'> +2.8190347e+11 </wgt>
<wgt id='1190'> +2.8083015e+11 </wgt>
<wgt id='1191'> +2.9053828e+11 </wgt>
<wgt id='1192'> +2.8851985e+11 </wgt>
<wgt id='1193'> +2.9059516e+11 </wgt>
<wgt id='1194'> +2.8015871e+11 </wgt>
<wgt id='1195'> +2.8493704e+11 </wgt>
<wgt id='1196'> +2.9146063e+11 </wgt>
<wgt id='1197'> +2.9090667e+11 </wgt>
<wgt id='1198'> +2.8518351e+11 </wgt>
<wgt id='1199'> +2.8791450e+11 </wgt>
<wgt id='1200'> +2.8804154e+11 </wgt>
<wgt id='1201'> +2.8085153e+11 </wgt>
<wgt id='1202'> +2.8617443e+11 </wgt>
<wgt id='1203'> +2.8208535e+11 </wgt>
<wgt id='1204'> +2.8216556e+11 </wgt>
<wgt id='1205'> +2.8386725e+11 </wgt>
<wgt id='1206'> +2.7992169e+11 </wgt>
<wgt id='1207'> +2.9113073e+11 </wgt>
<wgt id='1208'> +2.7063221e+11 </wgt>
<wgt id='1209'> +2.8364712e+11 </wgt>
<wgt id='1210'> +2.8625066e+11 </wgt>
<wgt id='1211'> +2.8379025e+11 </wgt>
<wgt id='1212'> +2.8307092e+11 </wgt>
<wgt id='1213'> +2.8841572e+11 </wgt>
<wgt id='1214'> +2.7784750e+11 </wgt>
<wgt id='1215'> +2.8341976e+11 </wgt>
<wgt id='1216'> +2.8046401e+11 </wgt>
<wgt id='1217'> +2.7844671e+11 </wgt>
<wgt id='1218'> +2.8495892e+11 </wgt>
<wgt id='1219'> +2.9358102e+11 </wgt>
<wgt id='1220'> +2.7985867e+11 </wgt>
<wgt id='1221'> +2.7680165e+11 </wgt>
<wgt id='1222'> +2.7865440e+11 </wgt>
<wgt id='1223'> +2.7339191e+11 </wgt>
<wgt id='1224'> +2.8264551e+11 </wgt>
<wgt id='1225'> +2.8683246e+11 </wgt>
<wgt id='1226'> +2.8633786e+11 </wgt>
<wgt id='1227'> +2.8011385e+11 </wgt>
<wgt id='1228'> +2.8230240e+11 </wgt>
<wgt id='1229'> +3.0079998e+11 </wgt>
<wgt id='1230'> +2.8943497e+11 </wgt>
<wgt id='1231'> +2.7808165e+11 </wgt>
<wgt id='1232'> +2.8735796e+11 </wgt>
<wgt id='1233'> +2.7640598e+11 </wgt>
<wgt id='1234'> +2.7783707e+11 </wgt>
<wgt id='1235'> +2.9973355e+11 </wgt>
<wgt id='1236'> +2.7789886e+11 </wgt>
<wgt id='1237'> +2.8937190e+11 </wgt>
<wgt id='1238'> +2.8176304e+11 </wgt>
<wgt id='1239'> +2.8635297e+11 </wgt>
<wgt id='1240'> +2.7783398e+11 </wgt>
<wgt id='1241'> +2.8628107e+11 </wgt>
<wgt id='1242'> +2.8011564e+11 </wgt>
<wgt id='1243'> +2.8531448e+11 </wgt>
<wgt id='1244'> +2.8783351e+11 </wgt>
<wgt id='1245'> +2.7812448e+11 </wgt>
<wgt id='1246'> +3.0442665e+11 </wgt>
<wgt id='1247'> +2.8144649e+11 </wgt>
<wgt id='1248'> +2.7323143e+11 </wgt>
<wgt id='1249'> +2.7566459e+11 </wgt>
<wgt id='1250'> +2.9326998e+11 </wgt>
<wgt id='1251'> +3.0089869e+11 </wgt>
<wgt id='1252'> +2.8787500e+11 </wgt>
<wgt id='1253'> +2.9017546e+11 </wgt>
<wgt id='1254'> +2.8895267e+11 </wgt>
<wgt id='1255'> +3.0212184e+11 </wgt>
<wgt id='1256'> +3.0231971e+11 </wgt>
<wgt id='1257'> +2.9844228e+11 </wgt>
<wgt id='1258'> +2.9365056e+11 </wgt>
<wgt id='1259'> +3.0180932e+11 </wgt>
<wgt id='1260'> +3.2693381e+11 </wgt>
<wgt id='1261'> +3.1430541e+11 </wgt>
<wgt id='1262'> +2.9304879e+11 </wgt>
<wgt id='1263'> +2.9868907e+11 </wgt>
<wgt id='1264'> +3.0165140e+11 </wgt>
<wgt id='1265'> +2.9450357e+11 </wgt>
<wgt id='1266'> +3.0243407e+11 </wgt>
<wgt id='1267'> +3.4014716e+11 </wgt>
<wgt id='1268'> +2.8993019e+11 </wgt>
<wgt id='1269'> +2.8666680e+11 </wgt>
<wgt id='1270'> +3.0201720e+11 </wgt>
<wgt id='1271'> +2.6899001e+11 </wgt>
<wgt id='1272'> +2.9303612e+11 </wgt>
<wgt id='1273'> +2.9061038e+11 </wgt>
<wgt id='1274'> +2.8638879e+11 </wgt>
<wgt id='1275'> +2.9459432e+11 </wgt>
<wgt id='1276'> +3.0129406e+11 </wgt>
<wgt id='1277'> +2.9636431e+11 </wgt>
<wgt id='1278'> +2.9714300e+11 </wgt>
<wgt id='1279'> +2.7959155e+11 </wgt>
<wgt id='1280'> +2.8649462e+11 </wgt>
<wgt id='1281'> +2.8489835e+11 </wgt>
<wgt id='1282'> +2.9519553e+11 </wgt>
<wgt id='1283'> +3.0684857e+11 </wgt>
<wgt id='1284'> +3.0961989e+11 </wgt>
<wgt id='1285'> +3.0796663e+11 </wgt>
<wgt id='1286'> +3.2972912e+11 </wgt>
<wgt id='1287'> +3.0730132e+11 </wgt>
<wgt id='1288'> +3.3199217e+11 </wgt>
<wgt id='1289'> +3.1407387e+11 </wgt>
<wgt id='1290'> +3.1219010e+11 </wgt>
<wgt id='1291'> +2.7812070e+11 </wgt>
<wgt id='1292'> +3.0177687e+11 </wgt>
<wgt id='1293'> +3.0263251e+11 </wgt>
<wgt id='1294'> +3.2128697e+11 </wgt>
<wgt id='1295'> +3.0826447e+11 </wgt>
<wgt id='1296'> +3.2604619e+11 </wgt>
<wgt id='1297'> +2.9154346e+11 </wgt>
<wgt id='1298'> +2.8826172e+11 </wgt>
<wgt id='1299'> +3.0291069e+11 </wgt>
<wgt id='1300'> +2.8492212e+11 </wgt>
<wgt id='1301'> +2.7922768e+11 </wgt>
<wgt id='1302'> +2.8188377e+11 </wgt>
<wgt id='1303'> +3.0220981e+11 </wgt>
<wgt id='1304'> +3.2151565e+11 </wgt>
<wgt id='1305'> +2.9828644e+11 </wgt>
<wgt id='1306'> +3.0577023e+11 </wgt>
<wgt id='1307'> +2.9118918e+11 </wgt>
<wgt id='1308'> +3.2946823e+11 </wgt>
<wgt id='1309'> +2.9952482e+11 </wgt>
<wgt id='1310'> +3.0296481e+11 </wgt>
<wgt id='1311'> +3.0018127e+11 </wgt>
<wgt id='1312'> +3.0990507e+11 </wgt>
<wgt id='1313'> +3.0206716e+11 </wgt>
<wgt id='1314'> +2.9607155e+11 </wgt>
<wgt id='1315'> +2.8709525e+11 </wgt>
<wgt id='1316'> +2.9953952e+11 </wgt>
<wgt id='1317'> +3.0913681e+11 </wgt>
<wgt id='1318'> +2.9080274e+11 </wgt>
<wgt id='1319'> +2.9795244e+11 </wgt>
<wgt id='1320'> +3.1554611e+11 </wgt>
<wgt id='1321'> +2.9984498e+11 </wgt>
<wgt id='1322'> +3.0656916e+11 </wgt>
<wgt id='1323'> +2.9129642e+11 </wgt>
<wgt id='1324'> +3.0627465e+11 </wgt>
<wgt id='1325'> +3.1216205e+11 </wgt>
<wgt id='1326'> +3.0802916e+11 </wgt>
<wgt id='1327'> +3.0915429e+11 </wgt>
<wgt id='1328'> +2.9782983e+11 </wgt>
<wgt id='1329'> +2.9775806e+11 </wgt>
<wgt id='1330'> +2.8610335e+11 </wgt>
<wgt id='1331'> +3.2204361e+11 </wgt>
<wgt id='1332'> +2.9465536e+11 </wgt>
<wgt id='1333'> +3.0181208e+11 </wgt>
<wgt id='1334'> +3.1651097e+11 </wgt>
<wgt id='1335'> +2.9253485e+11 </wgt>
<wgt id='1336'> +3.1303631e+11 </wgt>
<wgt id='1337'> +3.0884216e+11 </wgt>
<wgt id='1338'> +2.8773972e+11 </wgt>
<wgt id='1339'> +3.1590131e+11 </wgt>
<wgt id='1340'> +3.0662260e+11 </wgt>
<wgt id='1341'> +3.1885551e+11 </wgt>
<wgt id='1342'> +3.0517498e+11 </wgt>
<wgt id='1343'> +3.0891209e+11 </wgt>
<wgt id='1344'> +3.1431319e+11 </wgt>
<wgt id='1345'> +2.6691115e+11 </wgt>
<wgt id='1346'> +3.0340566e+11 </wgt>
<wgt id='1347'> +2.9122991e+11 </wgt>
<wgt id='1348'> +2.8980605e+11 </wgt>
<wgt id='1349'> +2.8744002e+11 </wgt>
<wgt id='1350'> +3.0698203e+11 </wgt>
<wgt id='1351'> +2.9217206e+11 </wgt>
<wgt id='1352'> +3.0304704e+11 </wgt>
<wgt id='1353'> +2.9991062e+11 </wgt>
<wgt id='1354'> +3.0910248e+11 </wgt>
<wgt id='1355'> +2.7747375e+11 </wgt>
<wgt id='1356'> +2.8011788e+11 </wgt>
<wgt id='1357'> +2.7785879e+11 </wgt>
<wgt id='1358'> +2.7570690e+11 </wgt>
<wgt id='1359'> +2.7709223e+11 </wgt>
<wgt id='1360'> +2.7234658e+11 </wgt>
<wgt id='1361'> +2.7644796e+11 </wgt>
<wgt id='1362'> +2.8391161e+11 </wgt>
<wgt id='1363'> +2.7456221e+11 </wgt>
<wgt id='1364'> +2.8250756e+11 </wgt>
<wgt id='1365'> +2.7532954e+11 </wgt>
<wgt id='1366'> +2.7441872e+11 </wgt>
<wgt id='1367'> +2.7752529e+11 </wgt>
<wgt id='1368'> +2.7792081e+11 </wgt>
<wgt id='1369'> +2.8062217e+11 </wgt>
<wgt id='1370'> +2.7477951e+11 </wgt>
<wgt id='1371'> +2.7758336e+11 </wgt>
<wgt id='1372'> +2.7954760e+11 </wgt>
<wgt id='1373'> +2.8070010e+11 </wgt>
<wgt id='1374'> +2.7009095e+11 </wgt>
<wgt id='1375'> +2.7828801e+11 </wgt>
<wgt id='1376'> +2.7686307e+11 </wgt>
<wgt id='1377'> +2.7803985e+11 </wgt>
<wgt id='1378'> +2.7658208e+11 </wgt>
<wgt id='1379'> +2.7593952e+11 </wgt>
<wgt id='1380'> +2.7505193e+11 </wgt>
<wgt id='1381'> +2.8216492e+11 </wgt>
<wgt id='1382'> +2.7646526e+11 </wgt>
<wgt id='1383'> +2.7536832e+11 </wgt>
<wgt id='1384'> +2.7396678e+11 </wgt>
<wgt id='1385'> +2.7345706e+11 </wgt>
<wgt id='1386'> +2.7641714e+11 </wgt>
<wgt id='1387'> +2.7575120e+11 </wgt>
<wgt id='1388'> +2.7288349e+11 </wgt>
<wgt id='1389'> +2.7634856e+11 </wgt>
<wgt id='1390'> +2.7915795e+11 </wgt>
<wgt id='1391'> +2.7585512e+11 </wgt>
<wgt id='1392'> +2.7436827e+11 </wgt>
<wgt id='1393'> +2.7781155e+11 </wgt>
<wgt id='1394'> +2.7608667e+11 </wgt>
<wgt id='1395'> +2.7263922e+11 </wgt>
<wgt id='1396'> +2.7796387e+11 </wgt>
<wgt id='1397'> +2.7822131e+11 </wgt>
<wgt id='1398'> +2.7992382e+11 </wgt>
<wgt id='1399'> +2.7493285e+11 </wgt>
<wgt id='1400'> +2.7292585e+11 </wgt>
<wgt id='1401'> +2.7791939e+11 </wgt>
<wgt id='1402'> +2.8014955e+11 </wgt>
<wgt id='1403'> +2.8435070e+11 </wgt>
<wgt id='1404'> +2.7939242e+11 </wgt>
<wgt id='1405'> +2.8408459e+11 </wgt>
<wgt id='1406'> +2.7950928e+11 </wgt>
<wgt id='1407'> +2.7787749e+11 </wgt>
<wgt id='1408'> +2.8299606e+11 </wgt>
<wgt id='1409'> +2.7349368e+11 </wgt>
<wgt id='1410'> +2.7092866e+11 </wgt>
<wgt id='1411'> +2.7720236e+11 </wgt>
<wgt id='1412'> +2.7584219e+11 </wgt>
<wgt id='1413'> +2.7725973e+11 </wgt>
<wgt id='1414'> +2.7994482e+11 </wgt>
<wgt id='1415'> +2.7964567e+11 </wgt>
<wgt id='1416'> +2.7940910e+11 </wgt>
<wgt id='1417'> +2.7399255e+11 </wgt>
<wgt id='1418'> +2.7735009e+11 </wgt>
<wgt id='1419'> +2.8116915e+11 </wgt>
<wgt id='1420'> +2.7469593e+11 </wgt>
<wgt id='1421'> +2.8377999e+11 </wgt>
<wgt id='1422'> +2.7062700e+11 </wgt>
<wgt id='1423'> +2.8204118e+11 </wgt>
<wgt id='1424'> +2.7847086e+11 </wgt>
<wgt id='1425'> +2.7805912e+11 </wgt>
<wgt id='1426'> +2.7969917e+11 </wgt>
<wgt id='1427'> +2.7667693e+11 </wgt>
<wgt id='1428'> +2.7652578e+11 </wgt>
<wgt id='1429'> +2.7711232e+11 </wgt>
<wgt id='1430'> +2.7370337e+11 </wgt>
<wgt id='1431'> +2.7273808e+11 </wgt>
<wgt id='1432'> +2.7617275e+11 </wgt>
<wgt id='1433'> +2.7494659e+11 </wgt>
<wgt id='1434'> +2.8492552e+11 </wgt>
<wgt id='1435'> +2.7647750e+11 </wgt>
<wgt id='1436'> +2.8125709e+11 </wgt>
<wgt id='1437'> +2.7734128e+11 </wgt>
<wgt id='1438'> +2.7679378e+11 </wgt>
<wgt id='1439'> +2.8185197e+11 </wgt>
<wgt id='1440'> +2.7971387e+11 </wgt>
<wgt id='1441'> +2.7469137e+11 </wgt>
<wgt id='1442'> +2.8198028e+11 </wgt>
<wgt id='1443'> +2.7476428e+11 </wgt>
<wgt id='1444'> +2.8032601e+11 </wgt>
<wgt id='1445'> +2.7815285e+11 </wgt>
<wgt id='1446'> +2.8339557e+11 </wgt>
<wgt id='1447'> +2.7551715e+11 </wgt>
<wgt id='1448'> +2.7995818e+11 </wgt>
<wgt id='1449'> +2.8032343e+11 </wgt>
<wgt id='1450'> +2.7676014e+11 </wgt>
<wgt id='1451'> +2.7860407e+11 </wgt>
<wgt id='1452'> +2.7965177e+11 </wgt>
<wgt id='1453'> +2.7907693e+11 </wgt>
<wgt id='1454'> +2.6948852e+11 </wgt>
<wgt id='1455'> +2.7620795e+11 </wgt>
<wgt id='1456'> +2.7633992e+11 </wgt>
<wgt id='1457'> +2.7662923e+11 </wgt>
<wgt id='1458'> +2.8216113e+11 </wgt>
<wgt id='1459'> +3.0965193e+11 </wgt>
<wgt id='1460'> +3.0468562e+11 </wgt>
<wgt id='1461'> +3.5970641e+11 </wgt>
<wgt id='1462'> +2.9943547e+11 </wgt>
<wgt id='1463'> +2.9966513e+11 </wgt>
<wgt id='1464'> +2.9914092e+11 </wgt>
<wgt id='1465'> +2.9950063e+11 </wgt>
<wgt id='1466'> +2.9937594e+11 </wgt>
<wgt id='1467'> +2.9956570e+11 </wgt>
<wgt id='1468'> +2.9922177e+11 </wgt>
<wgt id='1469'> +2.9899946e+11 </wgt>
<wgt id='1470'> +2.9978957e+11 </wgt>
<wgt id='1471'> +2.9989228e+11 </wgt>
<wgt id='1472'> +2.9896494e+11 </wgt>
<wgt id='1473'> +3.0061275e+11 </wgt>
<wgt id='1474'> +2.9830469e+11 </wgt>
<wgt id='1475'> +3.0055321e+11 </wgt>
<wgt id='1476'> +2.9864308e+11 </wgt>
<wgt id='1477'> +2.9888187e+11 </wgt>
<wgt id='1478'> +3.0072879e+11 </wgt>
<wgt id='1479'> +2.9902000e+11 </wgt>
<wgt id='1480'> +2.9972852e+11 </wgt>
<wgt id='1481'> +2.9894203e+11 </wgt>
<wgt id='1482'> +3.0010213e+11 </wgt>
<wgt id='1483'> +2.9951168e+11 </wgt>
<wgt id='1484'> +2.9932912e+11 </wgt>
<wgt id='1485'> +2.9964454e+11 </wgt>
<wgt id='1486'> +2.9893196e+11 </wgt>
<wgt id='1487'> +2.9971029e+11 </wgt>
<wgt id='1488'> +2.9909204e+11 </wgt>
<wgt id='1489'> +2.9907045e+11 </wgt>
<wgt id='1490'> +3.0042528e+11 </wgt>
<wgt id='1491'> +3.0439622e+11 </wgt>
<wgt id='1492'> +2.9666993e+11 </wgt>
<wgt id='1493'> +2.9584541e+11 </wgt>
<wgt id='1494'> +3.1069358e+11 </wgt>
<wgt id='1495'> +2.9869082e+11 </wgt>
<wgt id='1496'> +3.0023479e+11 </wgt>
<wgt id='1497'> +2.9963725e+11 </wgt>
<wgt id='1498'> +2.9915976e+11 </wgt>
<wgt id='1499'> +3.0141942e+11 </wgt>
<wgt id='1500'> +2.9835133e+11 </wgt>
<wgt id='1501'> +2.9984248e+11 </wgt>
<wgt id='1502'> +2.9835942e+11 </wgt>
<wgt id='1503'> +2.9574360e+11 </wgt>
<wgt id='1504'> +3.0347482e+11 </wgt>
<wgt id='1505'> +3.0027103e+11 </wgt>
<wgt id='1506'> +2.9861917e+11 </wgt>
<wgt id='1507'> +3.0181683e+11 </wgt>
<wgt id='1508'> +2.9627551e+11 </wgt>
<wgt id='1509'> +3.0012118e+11 </wgt>
<wgt id='1510'> +2.9648485e+11 </wgt>
<wgt id='1511'> +3.0062272e+11 </wgt>
<wgt id='1512'> +2.9907265e+11 </wgt>
<wgt id='1513'> +2.9931540e+11 </wgt>
<wgt id='1514'> +2.9957339e+11 </wgt>
<wgt id='1515'> +3.0253375e+11 </wgt>
<wgt id='1516'> +2.9943733e+11 </wgt>
<wgt id='1517'> +2.9898606e+11 </wgt>
<wgt id='1518'> +2.9994880e+11 </wgt>
<wgt id='1519'> +2.9761137e+11 </wgt>
<wgt id='1520'> +3.0073008e+11 </wgt>
<wgt id='1521'> +2.9842213e+11 </wgt>
<wgt id='1522'> +3.0001962e+11 </wgt>
<wgt id='1523'> +3.0067400e+11 </wgt>
<wgt id='1524'> +3.0096932e+11 </wgt>
<wgt id='1525'> +3.0038502e+11 </wgt>
<wgt id='1526'> +3.0059596e+11 </wgt>
<wgt id='1527'> +2.9943547e+11 </wgt>
<wgt id='1528'> +2.9877497e+11 </wgt>
<wgt id='1529'> +2.9969516e+11 </wgt>
<wgt id='1530'> +2.9565201e+11 </wgt>
<wgt id='1531'> +2.9980443e+11 </wgt>
<wgt id='1532'> +2.9828709e+11 </wgt>
<wgt id='1533'> +2.9475859e+11 </wgt>
<wgt id='1534'> +2.9826126e+11 </wgt>
<wgt id='1535'> +3.0266111e+11 </wgt>
<wgt id='1536'> +2.9685769e+11 </wgt>
<wgt id='1537'> +3.0053001e+11 </wgt>
<wgt id='1538'> +2.9628711e+11 </wgt>
<wgt id='1539'> +3.0526728e+11 </wgt>
<wgt id='1540'> +3.0007951e+11 </wgt>
<wgt id='1541'> +3.0092581e+11 </wgt>
<wgt id='1542'> +2.9985097e+11 </wgt>
<wgt id='1543'> +3.0128289e+11 </wgt>
<wgt id='1544'> +2.9804328e+11 </wgt>
<wgt id='1545'> +2.9778531e+11 </wgt>
<wgt id='1546'> +2.9592624e+11 </wgt>
<wgt id='1547'> +3.0211911e+11 </wgt>
<wgt id='1548'> +2.9826255e+11 </wgt>
<wgt id='1549'> +2.9633111e+11 </wgt>
<wgt id='1550'> +3.0126820e+11 </wgt>
<wgt id='1551'> +3.0040943e+11 </wgt>
<wgt id='1552'> +2.9961304e+11 </wgt>
<wgt id='1553'> +3.0304681e+11 </wgt>
<wgt id='1554'> +2.9983049e+11 </wgt>
<wgt id='1555'> +3.0062892e+11 </wgt>
<wgt id='1556'> +3.0200965e+11 </wgt>
<wgt id='1557'> +2.9920421e+11 </wgt>
<wgt id='1558'> +3.0005466e+11 </wgt>
<wgt id='1559'> +2.9735920e+11 </wgt>
<wgt id='1560'> +2.9856003e+11 </wgt>
<wgt id='1561'> +2.9706761e+11 </wgt>
<wgt id='1562'> +2.9829648e+11 </wgt>
<wgt id='1563'> +2.9997334e+11 </wgt>
<wgt id='1564'> +2.9943407e+11 </wgt>
<wgt id='1565'> +3.0222177e+11 </wgt>
<wgt id='1566'> +2.9984674e+11 </wgt>
<wgt id='1567'> +3.0237284e+11 </wgt>
<wgt id='1568'> +2.9969212e+11 </wgt>
<wgt id='1569'> +2.9932626e+11 </wgt>
<wgt id='1570'> +3.0559864e+11 </wgt>
<wgt id='1571'> +2.9977221e+11 </wgt>
<wgt id='1572'> +3.0178357e+11 </wgt>
<wgt id='1573'> +3.0341250e+11 </wgt>
<wgt id='1574'> +2.5795964e+11 </wgt>
<wgt id='1575'> +2.5802843e+11 </wgt>
<wgt id='1576'> +2.5789154e+11 </wgt>
<wgt id='1577'> +2.5797769e+11 </wgt>
<wgt id='1578'> +2.5855469e+11 </wgt>
<wgt id='1579'> +2.5878389e+11 </wgt>
<wgt id='1580'> +2.5855182e+11 </wgt>
<wgt id='1581'> +2.5742300e+11 </wgt>
<wgt id='1582'> +2.5714010e+11 </wgt>
<wgt id='1583'> +2.5750956e+11 </wgt>
<wgt id='1584'> +2.5852809e+11 </wgt>
<wgt id='1585'> +2.5818189e+11 </wgt>
<wgt id='1586'> +2.5706932e+11 </wgt>
<wgt id='1587'> +2.5726015e+11 </wgt>
<wgt id='1588'> +2.5679460e+11 </wgt>
<wgt id='1589'> +2.5766834e+11 </wgt>
<wgt id='1590'> +2.5779610e+11 </wgt>
<wgt id='1591'> +2.5803542e+11 </wgt>
<wgt id='1592'> +2.5696023e+11 </wgt>
<wgt id='1593'> +2.5695697e+11 </wgt>
<wgt id='1594'> +2.5892185e+11 </wgt>
<wgt id='1595'> +2.5554158e+11 </wgt>
<wgt id='1596'> +2.6195147e+11 </wgt>
<wgt id='1597'> +2.5974944e+11 </wgt>
<wgt id='1598'> +2.5991429e+11 </wgt>
<wgt id='1599'> +2.5504851e+11 </wgt>
<wgt id='1600'> +2.6268655e+11 </wgt>
<wgt id='1601'> +2.6011351e+11 </wgt>
<wgt id='1602'> +2.5800459e+11 </wgt>
<wgt id='1603'> +2.7053441e+11 </wgt>
<wgt id='1604'> +2.5810631e+11 </wgt>
</rwgt>
</event>
<event>
 9      1 +2.8343000e+11 1.40000000e+03 7.81738600e-03 7.88881200e-02
       21 -1    0    0  504  503 +0.0000000000e+00 +0.0000000000e+00 +1.2041192571e+03 1.2041192571e+03 0.0000000000e+00 0.0000e+00 -1.0000e+00
       21 -1    0    0  503  504 -0.0000000000e+00 -0.0000000000e+00 -4.0693615268e+02 4.0693615268e+02 0.0000000000e+00 0.0000e+00 -1.0000e+00
       45  2    1    2    0    0 -2.8421709430e-14 -1.1368683772e-13 +7.9718310439e+02 1.6110554097e+03 1.3999995112e+03 0.0000e+00 0.0000e+00
       25  2    3    3    0    0 +2.4961669348e+02 +6.4143644201e+02 +4.7641644780e+02 8.4637219985e+02 1.2499626449e+02 0.0000e+00 0.0000e+00
       35  2    3    3    0    0 -2.4961669348e+02 -6.4143644201e+02 +3.2076665659e+02 7.6468320990e+02 8.9999781835e+01 0.0000e+00 0.0000e+00
        5  1    5    5  501    0 +5.4613131966e+00 -2.7601755536e+01 +2.1633221441e+01 3.5741249509e+01 4.2140000000e+00 0.0000e+00 -1.0000e+00
       -5  1    5    5    0  501 -2.5507800668e+02 -6.1383468647e+02 +2.9913343515e+02 7.2894196040e+02 4.2140000000e+00 0.0000e+00 -1.0000e+00
        5  1    4    4  502    0 -1.6521010268e+00 +9.7894292103e+01 +4.2266879467e+01 1.0672520208e+02 4.2140000000e+00 0.0000e+00 -1.0000e+00
       -5  1    4    4    0  502 +2.5126879451e+02 +5.4354214990e+02 +4.3414956833e+02 7.3964699776e+02 4.2140000000e+00 0.0000e+00 -1.0000e+00
<mgrwt>
<rscale>  0 0.13999995E+04</rscale>
<asrwt>0</asrwt>
<pdfrwt beam="1">  1       21 0.18524911E+00 0.13999995E+04</pdfrwt>
<pdfrwt beam="2">  1       21 0.62605562E-01 0.13999995E+04</pdfrwt>
<totfact> 0.27673751E+02</totfact>
</mgrwt>
<rwgt>
<wgt id='1001'> +2.8343000e+11 </wgt>
<wgt id='1002'> +2.8376634e+11 </wgt>
<wgt id='1003'> +2.8376174e+11 </wgt>
<wgt id='1004'> +3.1911051e+11 </wgt>
<wgt id='1005'> +2.8343000e+11 </wgt>
<wgt id='1006'> +2.8343000e+11 </wgt>
<wgt id='1007'> +2.8376634e+11 </wgt>
<wgt id='1008'> +2.8376174e+11 </wgt>
<wgt id='1009'> +3.1911051e+11 </wgt>
<wgt id='1010'> +2.8343000e+11 </wgt>
<wgt id='1011'> +2.8343000e+11 </wgt>
<wgt id='1012'> +2.8376634e+11 </wgt>
<wgt id='1013'> +2.8376174e+11 </wgt>
<wgt id='1014'> +3.1911051e+11 </wgt>
<wgt id='1015'> +2.8343000e+11 </wgt>
<wgt id='1016'> +2.5391392e+11 </wgt>
<wgt id='1017'> +2.5419764e+11 </wgt>
<wgt id='1018'> +2.5419376e+11 </wgt>
<wgt id='1019'> +2.8376174e+11 </wgt>
<wgt id='1020'> +2.5391392e+11 </wgt>
<wgt id='1021'> +2.5391392e+11 </wgt>
<wgt id='1022'> +2.5419764e+11 </wgt>
<wgt id='1023'> +2.5419376e+11 </wgt>
<wgt id='1024'> +2.8376174e+11 </wgt>
<wgt id='1025'> +2.5391392e+11 </wgt>
<wgt id='1026'> +2.5391392e+11 </wgt>
<wgt id='1027'> +2.5419764e+11 </wgt>
<wgt id='1028'> +2.5419376e+11 </wgt>
<wgt id='1029'> +2.8376174e+11 </wgt>
<wgt id='1030'> +2.5391392e+11 </wgt>
<wgt id='1031'> +3.1871160e+11 </wgt>
<wgt id='1032'> +3.1911604e+11 </wgt>
<wgt id='1033'> +3.1911051e+11 </wgt>
<wgt id='1034'> +3.6176666e+11 </wgt>
<wgt id='1035'> +3.1871160e+11 </wgt>
<wgt id='1036'> +3.1871160e+11 </wgt>
<wgt id='1037'> +3.1911604e+11 </wgt>
<wgt id='1038'> +3.1911051e+11 </wgt>
<wgt id='1039'> +3.6176666e+11 </wgt>
<wgt id='1040'> +3.1871160e+11 </wgt>
<wgt id='1041'> +3.1871160e+11 </wgt>
<wgt id='1042'> +3.1911604e+11 </wgt>
<wgt id='1043'> +3.1911051e+11 </wgt>
<wgt id='1044'> +3.6176666e+11 </wgt>
<wgt id='1045'> +3.1871160e+11 </wgt>
<wgt id='1046'> +2.8343000e+11 </wgt>
<wgt id='1047'> +2.8343000e+11 </wgt>
<wgt id='1048'> +2.8343000e+11 </wgt>
<wgt id='1049'> +2.8289270e+11 </wgt>
<wgt id='1050'> +2.8322936e+11 </wgt>
<wgt id='1051'> +2.8328181e+11 </wgt>
<wgt id='1052'> +2.8430768e+11 </wgt>
<wgt id='1053'> +2.8165285e+11 </wgt>
<wgt id='1054'> +2.8372564e+11 </wgt>
<wgt id='1055'> +2.8219577e+11 </wgt>
<wgt id='1056'> +2.8215992e+11 </wgt>
<wgt id='1057'> +2.8327752e+11 </wgt>
<wgt id='1058'> +2.8276008e+11 </wgt>
<wgt id='1059'> +2.8529103e+11 </wgt>
<wgt id='1060'> +2.8379419e+11 </wgt>
<wgt id='1061'> +2.8395078e+11 </wgt>
<wgt id='1062'> +2.8429955e+11 </wgt>
<wgt id='1063'> +2.8458089e+11 </wgt>
<wgt id='1064'> +2.8405865e+11 </wgt>
<wgt id='1065'> +2.8468994e+11 </wgt>
<wgt id='1066'> +2.8132633e+11 </wgt>
<wgt id='1067'> +2.8194193e+11 </wgt>
<wgt id='1068'> +2.8347940e+11 </wgt>
<wgt id='1069'> +2.8257282e+11 </wgt>
<wgt id='1070'> +2.8399195e+11 </wgt>
<wgt id='1071'> +2.8292772e+11 </wgt>
<wgt id='1072'> +2.8271404e+11 </wgt>
<wgt id='1073'> +2.8300912e+11 </wgt>
<wgt id='1074'> +2.8297389e+11 </wgt>
<wgt id='1075'> +2.8431453e+11 </wgt>
<wgt id='1076'> +2.8150904e+11 </wgt>
<wgt id='1077'> +2.8202488e+11 </wgt>
<wgt id='1078'> +2.8413955e+11 </wgt>
<wgt id='1079'> +2.8219338e+11 </wgt>
<wgt id='1080'> +2.8317028e+11 </wgt>
<wgt id='1081'> +2.8295390e+11 </wgt>
<wgt id='1082'> +2.8221307e+11 </wgt>
<wgt id='1083'> +2.8413463e+11 </wgt>
<wgt id='1084'> +2.8394609e+11 </wgt>
<wgt id='1085'> +2.8273805e+11 </wgt>
<wgt id='1086'> +2.8320815e+11 </wgt>
<wgt id='1087'> +2.8327354e+11 </wgt>
<wgt id='1088'> +2.8296931e+11 </wgt>
<wgt id='1089'> +2.8254754e+11 </wgt>
<wgt id='1090'> +2.8404228e+11 </wgt>
<wgt id='1091'> +2.8355040e+11 </wgt>
<wgt id='1092'> +2.8370770e+11 </wgt>
<wgt id='1093'> +2.8345348e+11 </wgt>
<wgt id='1094'> +2.8252254e+11 </wgt>
<wgt id='1095'> +2.8364109e+11 </wgt>
<wgt id='1096'> +2.8343040e+11 </wgt>
<wgt id='1097'> +2.8291681e+11 </wgt>
<wgt id='1098'> +2.8315483e+11 </wgt>
<wgt id='1099'> +2.8321538e+11 </wgt>
<wgt id='1100'> +2.8405714e+11 </wgt>
<wgt id='1101'> +2.8350858e+11 </wgt>
<wgt id='1102'> +2.8333796e+11 </wgt>
<wgt id='1103'> +2.8285274e+11 </wgt>
<wgt id='1104'> +2.8321785e+11 </wgt>
<wgt id='1105'> +2.8351909e+11 </wgt>
<wgt id='1106'> +2.8376454e+11 </wgt>
<wgt id='1107'> +2.8355759e+11 </wgt>
<wgt id='1108'> +2.8323191e+11 </wgt>
<wgt id='1109'> +2.8325222e+11 </wgt>
<wgt id='1110'> +2.8369185e+11 </wgt>
<wgt id='1111'> +2.8362493e+11 </wgt>
<wgt id='1112'> +2.8337087e+11 </wgt>
<wgt id='1113'> +2.8376929e+11 </wgt>
<wgt id='1114'> +2.8314104e+11 </wgt>
<wgt id='1115'> +2.8307553e+11 </wgt>
<wgt id='1116'> +2.8398622e+11 </wgt>
<wgt id='1117'> +2.8335829e+11 </wgt>
<wgt id='1118'> +2.8367124e+11 </wgt>
<wgt id='1119'> +2.8309390e+11 </wgt>
<wgt id='1120'> +2.8315402e+11 </wgt>
<wgt id='1121'> +2.8351268e+11 </wgt>
<wgt id='1122'> +2.8313435e+11 </wgt>
<wgt id='1123'> +2.8337870e+11 </wgt>
<wgt id='1124'> +2.8343629e+11 </wgt>
<wgt id='1125'> +2.8362325e+11 </wgt>
<wgt id='1126'> +2.8354844e+11 </wgt>
<wgt id='1127'> +2.8328320e+11 </wgt>
<wgt id='1128'> +2.8340782e+11 </wgt>
<wgt id='1129'> +2.8330167e+11 </wgt>
<wgt id='1130'> +2.8345970e+11 </wgt>
<wgt id='1131'> +2.8387928e+11 </wgt>
<wgt id='1132'> +2.8333704e+11 </wgt>
<wgt id='1133'> +2.8355433e+11 </wgt>
<wgt id='1134'> +2.8341501e+11 </wgt>
<wgt id='1135'> +2.8346476e+11 </wgt>
<wgt id='1136'> +2.8334576e+11 </wgt>
<wgt id='1137'> +2.8323158e+11 </wgt>
<wgt id='1138'> +2.8357148e+11 </wgt>
<wgt id='1139'> +2.8350596e+11 </wgt>
<wgt id='1140'> +2.8368463e+11 </wgt>
<wgt id='1141'> +2.8321573e+11 </wgt>
<wgt id='1142'> +2.8348092e+11 </wgt>
<wgt id='1143'> +2.8361495e+11 </wgt>
<wgt id='1144'> +2.8332740e+11 </wgt>
<wgt id='1145'> +2.8357739e+11 </wgt>
<wgt id='1146'> +2.8347352e+11 </wgt>
<wgt id='1147'> +2.8348719e+11 </wgt>
<wgt id='1148'> +2.8343000e+11 </wgt>
<wgt id='1149'> +2.8343000e+11 </wgt>
<wgt id='1150'> +2.9730606e+11 </wgt>
<wgt id='1151'> +2.7704449e+11 </wgt>
<wgt id='1152'> +2.7587943e+11 </wgt>
<wgt id='1153'> +2.8581819e+11 </wgt>
<wgt id='1154'> +2.8155228e+11 </wgt>
<wgt id='1155'> +2.9388209e+11 </wgt>
<wgt id='1156'> +2.7815402e+11 </wgt>
<wgt id='1157'> +2.7467438e+11 </wgt>
<wgt id='1158'> +2.7702078e+11 </wgt>
<wgt id='1159'> +2.9978741e+11 </wgt>
<wgt id='1160'> +2.8546129e+11 </wgt>
<wgt id='1161'> +2.8881105e+11 </wgt>
<wgt id='1162'> +2.8534135e+11 </wgt>
<wgt id='1163'> +2.8648573e+11 </wgt>
<wgt id='1164'> +2.7351344e+11 </wgt>
<wgt id='1165'> +2.7813468e+11 </wgt>
<wgt id='1166'> +2.8313849e+11 </wgt>
<wgt id='1167'> +2.7798765e+11 </wgt>
<wgt id='1168'> +2.7416190e+11 </wgt>
<wgt id='1169'> +2.7596106e+11 </wgt>
<wgt id='1170'> +2.8423560e+11 </wgt>
<wgt id='1171'> +2.7306421e+11 </wgt>
<wgt id='1172'> +2.7440578e+11 </wgt>
<wgt id='1173'> +2.8548764e+11 </wgt>
<wgt id='1174'> +2.7675877e+11 </wgt>
<wgt id='1175'> +2.7849101e+11 </wgt>
<wgt id='1176'> +2.8692869e+11 </wgt>
<wgt id='1177'> +2.7825237e+11 </wgt>
<wgt id='1178'> +2.8431837e+11 </wgt>
<wgt id='1179'> +2.8414186e+11 </wgt>
<wgt id='1180'> +2.8549443e+11 </wgt>
<wgt id='1181'> +2.9099454e+11 </wgt>
<wgt id='1182'> +2.8015459e+11 </wgt>
<wgt id='1183'> +2.8942567e+11 </wgt>
<wgt id='1184'> +2.8153881e+11 </wgt>
<wgt id='1185'> +2.8824265e+11 </wgt>
<wgt id='1186'> +2.7770523e+11 </wgt>
<wgt id='1187'> +2.8439855e+11 </wgt>
<wgt id='1188'> +2.8863989e+11 </wgt>
<wgt id='1189'> +2.8179915e+11 </wgt>
<wgt id='1190'> +2.8066161e+11 </wgt>
<wgt id='1191'> +2.9039572e+11 </wgt>
<wgt id='1192'> +2.8833566e+11 </wgt>
<wgt id='1193'> +2.9028743e+11 </wgt>
<wgt id='1194'> +2.7983041e+11 </wgt>
<wgt id='1195'> +2.8522532e+11 </wgt>
<wgt id='1196'> +2.9139796e+11 </wgt>
<wgt id='1197'> +2.9078879e+11 </wgt>
<wgt id='1198'> +2.8566893e+11 </wgt>
<wgt id='1199'> +2.8793146e+11 </wgt>
<wgt id='1200'> +2.8854140e+11 </wgt>
<wgt id='1201'> +2.8105796e+11 </wgt>
<wgt id='1202'> +2.8597514e+11 </wgt>
<wgt id='1203'> +2.8252107e+11 </wgt>
<wgt id='1204'> +2.8178426e+11 </wgt>
<wgt id='1205'> +2.8397339e+11 </wgt>
<wgt id='1206'> +2.8014630e+11 </wgt>
<wgt id='1207'> +2.9111832e+11 </wgt>
<wgt id='1208'> +2.7062506e+11 </wgt>
<wgt id='1209'> +2.8397562e+11 </wgt>
<wgt id='1210'> +2.8655119e+11 </wgt>
<wgt id='1211'> +2.8338244e+11 </wgt>
<wgt id='1212'> +2.8306635e+11 </wgt>
<wgt id='1213'> +2.8804447e+11 </wgt>
<wgt id='1214'> +2.7809185e+11 </wgt>
<wgt id='1215'> +2.8268695e+11 </wgt>
<wgt id='1216'> +2.7978158e+11 </wgt>
<wgt id='1217'> +2.7880949e+11 </wgt>
<wgt id='1218'> +2.8499708e+11 </wgt>
<wgt id='1219'> +2.9356016e+11 </wgt>
<wgt id='1220'> +2.8007278e+11 </wgt>
<wgt id='1221'> +2.7688326e+11 </wgt>
<wgt id='1222'> +2.7863677e+11 </wgt>
<wgt id='1223'> +2.7348580e+11 </wgt>
<wgt id='1224'> +2.8256575e+11 </wgt>
<wgt id='1225'> +2.8634229e+11 </wgt>
<wgt id='1226'> +2.8610842e+11 </wgt>
<wgt id='1227'> +2.8044926e+11 </wgt>
<wgt id='1228'> +2.8236706e+11 </wgt>
<wgt id='1229'> +3.0061245e+11 </wgt>
<wgt id='1230'> +2.8913431e+11 </wgt>
<wgt id='1231'> +2.7813468e+11 </wgt>
<wgt id='1232'> +2.8738502e+11 </wgt>
<wgt id='1233'> +2.7638877e+11 </wgt>
<wgt id='1234'> +2.7797018e+11 </wgt>
<wgt id='1235'> +2.9973232e+11 </wgt>
<wgt id='1236'> +2.7811518e+11 </wgt>
<wgt id='1237'> +2.8952817e+11 </wgt>
<wgt id='1238'> +2.8126263e+11 </wgt>
<wgt id='1239'> +2.8620238e+11 </wgt>
<wgt id='1240'> +2.7730691e+11 </wgt>
<wgt id='1241'> +2.8674391e+11 </wgt>
<wgt id='1242'> +2.8018524e+11 </wgt>
<wgt id='1243'> +2.8506635e+11 </wgt>
<wgt id='1244'> +2.8844900e+11 </wgt>
<wgt id='1245'> +2.7769665e+11 </wgt>
<wgt id='1246'> +3.0427890e+11 </wgt>
<wgt id='1247'> +2.8139573e+11 </wgt>
<wgt id='1248'> +2.7320530e+11 </wgt>
<wgt id='1249'> +2.7559945e+11 </wgt>
<wgt id='1250'> +2.9341767e+11 </wgt>
<wgt id='1251'> +3.0117468e+11 </wgt>
<wgt id='1252'> +2.8795165e+11 </wgt>
<wgt id='1253'> +2.9079404e+11 </wgt>
<wgt id='1254'> +2.8910246e+11 </wgt>
<wgt id='1255'> +3.0259330e+11 </wgt>
<wgt id='1256'> +3.0276675e+11 </wgt>
<wgt id='1257'> +2.9918881e+11 </wgt>
<wgt id='1258'> +2.9326947e+11 </wgt>
<wgt id='1259'> +3.0266053e+11 </wgt>
<wgt id='1260'> +3.2730406e+11 </wgt>
<wgt id='1261'> +3.1451546e+11 </wgt>
<wgt id='1262'> +2.9343146e+11 </wgt>
<wgt id='1263'> +2.9892689e+11 </wgt>
<wgt id='1264'> +3.0189953e+11 </wgt>
<wgt id='1265'> +2.9414878e+11 </wgt>
<wgt id='1266'> +3.0301398e+11 </wgt>
<wgt id='1267'> +3.4225144e+11 </wgt>
<wgt id='1268'> +2.8960992e+11 </wgt>
<wgt id='1269'> +2.8663486e+11 </wgt>
<wgt id='1270'> +3.0292595e+11 </wgt>
<wgt id='1271'> +2.6825481e+11 </wgt>
<wgt id='1272'> +2.9312630e+11 </wgt>
<wgt id='1273'> +2.9060994e+11 </wgt>
<wgt id='1274'> +2.8645151e+11 </wgt>
<wgt id='1275'> +2.9427961e+11 </wgt>
<wgt id='1276'> +3.0191416e+11 </wgt>
<wgt id='1277'> +2.9699612e+11 </wgt>
<wgt id='1278'> +2.9777765e+11 </wgt>
<wgt id='1279'> +2.7947990e+11 </wgt>
<wgt id='1280'> +2.8620237e+11 </wgt>
<wgt id='1281'> +2.8491529e+11 </wgt>
<wgt id='1282'> +2.9508677e+11 </wgt>
<wgt id='1283'> +3.0795982e+11 </wgt>
<wgt id='1284'> +3.0916305e+11 </wgt>
<wgt id='1285'> +3.0796367e+11 </wgt>
<wgt id='1286'> +3.2999692e+11 </wgt>
<wgt id='1287'> +3.0815861e+11 </wgt>
<wgt id='1288'> +3.3307928e+11 </wgt>
<wgt id='1289'> +3.1436232e+11 </wgt>
<wgt id='1290'> +3.1233699e+11 </wgt>
<wgt id='1291'> +2.7821535e+11 </wgt>
<wgt id='1292'> +3.0222815e+11 </wgt>
<wgt id='1293'> +3.0283132e+11 </wgt>
<wgt id='1294'> +3.2219200e+11 </wgt>
<wgt id='1295'> +3.0886595e+11 </wgt>
<wgt id='1296'> +3.2723261e+11 </wgt>
<wgt id='1297'> +2.9116462e+11 </wgt>
<wgt id='1298'> +2.8846488e+11 </wgt>
<wgt id='1299'> +3.0332028e+11 </wgt>
<wgt id='1300'> +2.8423898e+11 </wgt>
<wgt id='1301'> +2.7929246e+11 </wgt>
<wgt id='1302'> +2.8196632e+11 </wgt>
<wgt id='1303'> +3.0267492e+11 </wgt>
<wgt id='1304'> +3.2302058e+11 </wgt>
<wgt id='1305'> +2.9826974e+11 </wgt>
<wgt id='1306'> +3.0584737e+11 </wgt>
<wgt id='1307'> +2.9010713e+11 </wgt>
<wgt id='1308'> +3.2993293e+11 </wgt>
<wgt id='1309'> +2.9995006e+11 </wgt>
<wgt id='1310'> +3.0312599e+11 </wgt>
<wgt id='1311'> +2.9954043e+11 </wgt>
<wgt id='1312'> +3.1125619e+11 </wgt>
<wgt id='1313'> +3.0266035e+11 </wgt>
<wgt id='1314'> +2.9533618e+11 </wgt>
<wgt id='1315'> +2.8727279e+11 </wgt>
<wgt id='1316'> +2.9961872e+11 </wgt>
<wgt id='1317'> +3.1014808e+11 </wgt>
<wgt id='1318'> +2.9098668e+11 </wgt>
<wgt id='1319'> +2.9749094e+11 </wgt>
<wgt id='1320'> +3.1617488e+11 </wgt>
<wgt id='1321'> +3.0063587e+11 </wgt>
<wgt id='1322'> +3.0800881e+11 </wgt>
<wgt id='1323'> +2.9054110e+11 </wgt>
<wgt id='1324'> +3.0696965e+11 </wgt>
<wgt id='1325'> +3.1236745e+11 </wgt>
<wgt id='1326'> +3.0844532e+11 </wgt>
<wgt id='1327'> +3.1046159e+11 </wgt>
<wgt id='1328'> +2.9782968e+11 </wgt>
<wgt id='1329'> +2.9775062e+11 </wgt>
<wgt id='1330'> +2.8571184e+11 </wgt>
<wgt id='1331'> +3.2238942e+11 </wgt>
<wgt id='1332'> +2.9559401e+11 </wgt>
<wgt id='1333'> +3.0191095e+11 </wgt>
<wgt id='1334'> +3.1701237e+11 </wgt>
<wgt id='1335'> +2.9243259e+11 </wgt>
<wgt id='1336'> +3.1412717e+11 </wgt>
<wgt id='1337'> +3.0895669e+11 </wgt>
<wgt id='1338'> +2.8753697e+11 </wgt>
<wgt id='1339'> +3.1544770e+11 </wgt>
<wgt id='1340'> +3.0748009e+11 </wgt>
<wgt id='1341'> +3.2053053e+11 </wgt>
<wgt id='1342'> +3.0428989e+11 </wgt>
<wgt id='1343'> +3.0888688e+11 </wgt>
<wgt id='1344'> +3.1522534e+11 </wgt>
<wgt id='1345'> +2.6568205e+11 </wgt>
<wgt id='1346'> +3.0376635e+11 </wgt>
<wgt id='1347'> +2.9177800e+11 </wgt>
<wgt id='1348'> +2.9001561e+11 </wgt>
<wgt id='1349'> +2.8751083e+11 </wgt>
<wgt id='1350'> +3.0783186e+11 </wgt>
<wgt id='1351'> +2.9181864e+11 </wgt>
<wgt id='1352'> +3.0333771e+11 </wgt>
<wgt id='1353'> +3.0026962e+11 </wgt>
<wgt id='1354'> +3.0943086e+11 </wgt>
<wgt id='1355'> +2.7783563e+11 </wgt>
<wgt id='1356'> +2.8046594e+11 </wgt>
<wgt id='1357'> +2.7823865e+11 </wgt>
<wgt id='1358'> +2.7613774e+11 </wgt>
<wgt id='1359'> +2.7732242e+11 </wgt>
<wgt id='1360'> +2.7281802e+11 </wgt>
<wgt id='1361'> +2.7672269e+11 </wgt>
<wgt id='1362'> +2.8461484e+11 </wgt>
<wgt id='1363'> +2.7523299e+11 </wgt>
<wgt id='1364'> +2.8290501e+11 </wgt>
<wgt id='1365'> +2.7570658e+11 </wgt>
<wgt id='1366'> +2.7458829e+11 </wgt>
<wgt id='1367'> +2.7775874e+11 </wgt>
<wgt id='1368'> +2.7833427e+11 </wgt>
<wgt id='1369'> +2.8100495e+11 </wgt>
<wgt id='1370'> +2.7496711e+11 </wgt>
<wgt id='1371'> +2.7802419e+11 </wgt>
<wgt id='1372'> +2.7963037e+11 </wgt>
<wgt id='1373'> +2.8107104e+11 </wgt>
<wgt id='1374'> +2.7060036e+11 </wgt>
<wgt id='1375'> +2.7879442e+11 </wgt>
<wgt id='1376'> +2.7713238e+11 </wgt>
<wgt id='1377'> +2.7838895e+11 </wgt>
<wgt id='1378'> +2.7725759e+11 </wgt>
<wgt id='1379'> +2.7629206e+11 </wgt>
<wgt id='1380'> +2.7537356e+11 </wgt>
<wgt id='1381'> +2.8244976e+11 </wgt>
<wgt id='1382'> +2.7674879e+11 </wgt>
<wgt id='1383'> +2.7556787e+11 </wgt>
<wgt id='1384'> +2.7412304e+11 </wgt>
<wgt id='1385'> +2.7359432e+11 </wgt>
<wgt id='1386'> +2.7651202e+11 </wgt>
<wgt id='1387'> +2.7606969e+11 </wgt>
<wgt id='1388'> +2.7321701e+11 </wgt>
<wgt id='1389'> +2.7667724e+11 </wgt>
<wgt id='1390'> +2.7972925e+11 </wgt>
<wgt id='1391'> +2.7634910e+11 </wgt>
<wgt id='1392'> +2.7456380e+11 </wgt>
<wgt id='1393'> +2.7838791e+11 </wgt>
<wgt id='1394'> +2.7656120e+11 </wgt>
<wgt id='1395'> +2.7294183e+11 </wgt>
<wgt id='1396'> +2.7828830e+11 </wgt>
<wgt id='1397'> +2.7855804e+11 </wgt>
<wgt id='1398'> +2.8053175e+11 </wgt>
<wgt id='1399'> +2.7543479e+11 </wgt>
<wgt id='1400'> +2.7313878e+11 </wgt>
<wgt id='1401'> +2.7839804e+11 </wgt>
<wgt id='1402'> +2.8045614e+11 </wgt>
<wgt id='1403'> +2.8509242e+11 </wgt>
<wgt id='1404'> +2.8008729e+11 </wgt>
<wgt id='1405'> +2.8455616e+11 </wgt>
<wgt id='1406'> +2.8011246e+11 </wgt>
<wgt id='1407'> +2.7827918e+11 </wgt>
<wgt id='1408'> +2.8365212e+11 </wgt>
<wgt id='1409'> +2.7366112e+11 </wgt>
<wgt id='1410'> +2.7101230e+11 </wgt>
<wgt id='1411'> +2.7756556e+11 </wgt>
<wgt id='1412'> +2.7628140e+11 </wgt>
<wgt id='1413'> +2.7806652e+11 </wgt>
<wgt id='1414'> +2.8033015e+11 </wgt>
<wgt id='1415'> +2.7958683e+11 </wgt>
<wgt id='1416'> +2.7963863e+11 </wgt>
<wgt id='1417'> +2.7460369e+11 </wgt>
<wgt id='1418'> +2.7754604e+11 </wgt>
<wgt id='1419'> +2.8149420e+11 </wgt>
<wgt id='1420'> +2.7473840e+11 </wgt>
<wgt id='1421'> +2.8419936e+11 </wgt>
<wgt id='1422'> +2.7098044e+11 </wgt>
<wgt id='1423'> +2.8230439e+11 </wgt>
<wgt id='1424'> +2.7876155e+11 </wgt>
<wgt id='1425'> +2.7840751e+11 </wgt>
<wgt id='1426'> +2.8002249e+11 </wgt>
<wgt id='1427'> +2.7693183e+11 </wgt>
<wgt id='1428'> +2.7677510e+11 </wgt>
<wgt id='1429'> +2.7773425e+11 </wgt>
<wgt id='1430'> +2.7414141e+11 </wgt>
<wgt id='1431'> +2.7322199e+11 </wgt>
<wgt id='1432'> +2.7618764e+11 </wgt>
<wgt id='1433'> +2.7496891e+11 </wgt>
<wgt id='1434'> +2.8526267e+11 </wgt>
<wgt id='1435'> +2.7686598e+11 </wgt>
<wgt id='1436'> +2.8163858e+11 </wgt>
<wgt id='1437'> +2.7746878e+11 </wgt>
<wgt id='1438'> +2.7724386e+11 </wgt>
<wgt id='1439'> +2.8257311e+11 </wgt>
<wgt id='1440'> +2.7984450e+11 </wgt>
<wgt id='1441'> +2.7483638e+11 </wgt>
<wgt id='1442'> +2.8205140e+11 </wgt>
<wgt id='1443'> +2.7500205e+11 </wgt>
<wgt id='1444'> +2.8115477e+11 </wgt>
<wgt id='1445'> +2.7828662e+11 </wgt>
<wgt id='1446'> +2.8412498e+11 </wgt>
<wgt id='1447'> +2.7610381e+11 </wgt>
<wgt id='1448'> +2.8033830e+11 </wgt>
<wgt id='1449'> +2.8076039e+11 </wgt>
<wgt id='1450'> +2.7716699e+11 </wgt>
<wgt id='1451'> +2.7887113e+11 </wgt>
<wgt id='1452'> +2.7997827e+11 </wgt>
<wgt id='1453'> +2.7929405e+11 </wgt>
<wgt id='1454'> +2.6971909e+11 </wgt>
<wgt id='1455'> +2.7651709e+11 </wgt>
<wgt id='1456'> +2.7664701e+11 </wgt>
<wgt id='1457'> +2.7705218e+11 </wgt>
<wgt id='1458'> +2.8279894e+11 </wgt>
<wgt id='1459'> +3.1024305e+11 </wgt>
<wgt id='1460'> +3.0523854e+11 </wgt>
<wgt id='1461'> +3.6101943e+11 </wgt>
<wgt id='1462'> +2.9964097e+11 </wgt>
<wgt id='1463'> +2.9986912e+11 </wgt>
<wgt id='1464'> +2.9934835e+11 </wgt>
<wgt id='1465'> +2.9970650e+11 </wgt>
<wgt id='1466'> +2.9958112e+11 </wgt>
<wgt id='1467'> +2.9976857e+11 </wgt>
<wgt id='1468'> +2.9943159e+11 </wgt>
<wgt id='1469'> +2.9920583e+11 </wgt>
<wgt id='1470'> +2.9999437e+11 </wgt>
<wgt id='1471'> +3.0009632e+11 </wgt>
<wgt id='1472'> +2.9917195e+11 </wgt>
<wgt id='1473'> +3.0082135e+11 </wgt>
<wgt id='1474'> +2.9850721e+11 </wgt>
<wgt id='1475'> +3.0076128e+11 </wgt>
<wgt id='1476'> +2.9884678e+11 </wgt>
<wgt id='1477'> +2.9908869e+11 </wgt>
<wgt id='1478'> +3.0093122e+11 </wgt>
<wgt id='1479'> +2.9923946e+11 </wgt>
<wgt id='1480'> +2.9992456e+11 </wgt>
<wgt id='1481'> +2.9913877e+11 </wgt>
<wgt id='1482'> +3.0031961e+11 </wgt>
<wgt id='1483'> +2.9971472e+11 </wgt>
<wgt id='1484'> +2.9953837e+11 </wgt>
<wgt id='1485'> +2.9985046e+11 </wgt>
<wgt id='1486'> +2.9913645e+11 </wgt>
<wgt id='1487'> +2.9991777e+11 </wgt>
<wgt id='1488'> +2.9929518e+11 </wgt>
<wgt id='1489'> +2.9927438e+11 </wgt>
<wgt id='1490'> +3.0063509e+11 </wgt>
<wgt id='1491'> +3.0461139e+11 </wgt>
<wgt id='1492'> +2.9687033e+11 </wgt>
<wgt id='1493'> +2.9603920e+11 </wgt>
<wgt id='1494'> +3.1093630e+11 </wgt>
<wgt id='1495'> +2.9888429e+11 </wgt>
<wgt id='1496'> +3.0045327e+11 </wgt>
<wgt id='1497'> +2.9984364e+11 </wgt>
<wgt id='1498'> +2.9936406e+11 </wgt>
<wgt id='1499'> +3.0163961e+11 </wgt>
<wgt id='1500'> +2.9854894e+11 </wgt>
<wgt id='1501'> +3.0004059e+11 </wgt>
<wgt id='1502'> +2.9858500e+11 </wgt>
<wgt id='1503'> +2.9587879e+11 </wgt>
<wgt id='1504'> +3.0376949e+11 </wgt>
<wgt id='1505'> +3.0045674e+11 </wgt>
<wgt id='1506'> +2.9884278e+11 </wgt>
<wgt id='1507'> +3.0214093e+11 </wgt>
<wgt id='1508'> +2.9621732e+11 </wgt>
<wgt id='1509'> +3.0033944e+11 </wgt>
<wgt id='1510'> +2.9663462e+11 </wgt>
<wgt id='1511'> +3.0083544e+11 </wgt>
<wgt id='1512'> +2.9927554e+11 </wgt>
<wgt id='1513'> +2.9951483e+11 </wgt>
<wgt id='1514'> +2.9978718e+11 </wgt>
<wgt id='1515'> +3.0282000e+11 </wgt>
<wgt id='1516'> +2.9959078e+11 </wgt>
<wgt id='1517'> +2.9918209e+11 </wgt>
<wgt id='1518'> +3.0017940e+11 </wgt>
<wgt id='1519'> +2.9779500e+11 </wgt>
<wgt id='1520'> +3.0095074e+11 </wgt>
<wgt id='1521'> +2.9859989e+11 </wgt>
<wgt id='1522'> +3.0023916e+11 </wgt>
<wgt id='1523'> +3.0087025e+11 </wgt>
<wgt id='1524'> +3.0119313e+11 </wgt>
<wgt id='1525'> +3.0056090e+11 </wgt>
<wgt id='1526'> +3.0084299e+11 </wgt>
<wgt id='1527'> +2.9964097e+11 </wgt>
<wgt id='1528'> +2.9892424e+11 </wgt>
<wgt id='1529'> +2.9997126e+11 </wgt>
<wgt id='1530'> +2.9583636e+11 </wgt>
<wgt id='1531'> +3.0040209e+11 </wgt>
<wgt id='1532'> +2.9900675e+11 </wgt>
<wgt id='1533'> +2.9529266e+11 </wgt>
<wgt id='1534'> +2.9885363e+11 </wgt>
<wgt id='1535'> +3.0331814e+11 </wgt>
<wgt id='1536'> +2.9740870e+11 </wgt>
<wgt id='1537'> +3.0124457e+11 </wgt>
<wgt id='1538'> +2.9682392e+11 </wgt>
<wgt id='1539'> +3.0581130e+11 </wgt>
<wgt id='1540'> +3.0079555e+11 </wgt>
<wgt id='1541'> +3.0159528e+11 </wgt>
<wgt id='1542'> +3.0045802e+11 </wgt>
<wgt id='1543'> +3.0191948e+11 </wgt>
<wgt id='1544'> +2.9865933e+11 </wgt>
<wgt id='1545'> +2.9837988e+11 </wgt>
<wgt id='1546'> +2.9653517e+11 </wgt>
<wgt id='1547'> +3.0271534e+11 </wgt>
<wgt id='1548'> +2.9890495e+11 </wgt>
<wgt id='1549'> +2.9692333e+11 </wgt>
<wgt id='1550'> +3.0195368e+11 </wgt>
<wgt id='1551'> +3.0100988e+11 </wgt>
<wgt id='1552'> +3.0025237e+11 </wgt>
<wgt id='1553'> +3.0382582e+11 </wgt>
<wgt id='1554'> +3.0045293e+11 </wgt>
<wgt id='1555'> +3.0125070e+11 </wgt>
<wgt id='1556'> +3.0258224e+11 </wgt>
<wgt id='1557'> +2.9985589e+11 </wgt>
<wgt id='1558'> +3.0067323e+11 </wgt>
<wgt id='1559'> +2.9792163e+11 </wgt>
<wgt id='1560'> +2.9916948e+11 </wgt>
<wgt id='1561'> +2.9776203e+11 </wgt>
<wgt id='1562'> +2.9886471e+11 </wgt>
<wgt id='1563'> +3.0058638e+11 </wgt>
<wgt id='1564'> +3.0004558e+11 </wgt>
<wgt id='1565'> +3.0288089e+11 </wgt>
<wgt id='1566'> +3.0044459e+11 </wgt>
<wgt id='1567'> +3.0281905e+11 </wgt>
<wgt id='1568'> +3.0028434e+11 </wgt>
<wgt id='1569'> +2.9990357e+11 </wgt>
<wgt id='1570'> +3.0621106e+11 </wgt>
<wgt id='1571'> +3.0038985e+11 </wgt>
<wgt id='1572'> +3.0236013e+11 </wgt>
<wgt id='1573'> +3.0408485e+11 </wgt>
<wgt id='1574'> +2.5790964e+11 </wgt>
<wgt id='1575'> +2.5797826e+11 </wgt>
<wgt id='1576'> +2.5784143e+11 </wgt>
<wgt id='1577'> +2.5792770e+11 </wgt>
<wgt id='1578'> +2.5850441e+11 </wgt>
<wgt id='1579'> +2.5873045e+11 </wgt>
<wgt id='1580'> +2.5849811e+11 </wgt>
<wgt id='1581'> +2.5738046e+11 </wgt>
<wgt id='1582'> +2.5709935e+11 </wgt>
<wgt id='1583'> +2.5745677e+11 </wgt>
<wgt id='1584'> +2.5847839e+11 </wgt>
<wgt id='1585'> +2.5813565e+11 </wgt>
<wgt id='1586'> +2.5703025e+11 </wgt>
<wgt id='1587'> +2.5721599e+11 </wgt>
<wgt id='1588'> +2.5675315e+11 </wgt>
<wgt id='1589'> +2.5761380e+11 </wgt>
<wgt id='1590'> +2.5774792e+11 </wgt>
<wgt id='1591'> +2.5798610e+11 </wgt>
<wgt id='1592'> +2.5691231e+11 </wgt>
<wgt id='1593'> +2.5689451e+11 </wgt>
<wgt id='1594'> +2.5888532e+11 </wgt>
<wgt id='1595'> +2.5547444e+11 </wgt>
<wgt id='1596'> +2.6193830e+11 </wgt>
<wgt id='1597'> +2.5970442e+11 </wgt>
<wgt id='1598'> +2.5986364e+11 </wgt>
<wgt id='1599'> +2.5498254e+11 </wgt>
<wgt id='1600'> +2.6266375e+11 </wgt>
<wgt id='1601'> +2.6006481e+11 </wgt>
<wgt id='1602'> +2.5795581e+11 </wgt>
<wgt id='1603'> +2.7068357e+11 </wgt>
<wgt id='1604'> +2.5804976e+11 </wgt>
</rwgt>
</event>
<event>
 9      1 +2.8343000e+11 1.40000200e+03 7.81738600e-03 7.88881100e-02
       21 -1    0    0  504  503 +0.0000000000e+00 +0.0000000000e+00 +5.7999220281e+02 5.7999220281e+02 0.0000000000e+00 0.0000e+00 -1.0000e+00
       21 -1    0    0  503  504 -0.0000000000e+00 -0.0000000000e+00 -8.4484092624e+02 8.4484092624e+02 0.0000000000e+00 0.0000e+00 -1.0000e+00
       45  2    1    2    0    0 +0.0000000000e+00 -5.6843418861e-14 -2.6484872342e+02 1.4248331290e+03 1.4000016426e+03 0.0000e+00 0.0000e+00
       25  2    3    3    0    0 +1.9004430696e+02 -3.0504707196e+02 -7.3415204872e+02 8.2690656662e+02 1.2499873828e+02 0.0000e+00 0.0000e+00
       35  2    3    3    0    0 -1.9004430696e+02 +3.0504707196e+02 +4.6930332529e+02 5.9792656243e+02 9.0000045597e+01 0.0000e+00 0.0000e+00
        5  1    5    5  501    0 -4.3449487694e+01 +5.6950926666e+01 +1.5894380417e+02 1.7439081602e+02 4.2140000000e+00 0.0000e+00 1.0000e+00
       -5  1    5    5    0  501 -1.4659481926e+02 +2.4809614529e+02 +3.1035952112e+02 4.2353574641e+02 4.2140000000e+00 0.0000e+00 1.0000e+00
        5  1    4    4  502    0 +1.5617313252e+02 -2.1774917099e+02 -4.1281395686e+02 4.9217666500e+02 4.2140000000e+00 0.0000e+00 1.0000e+00
       -5  1    4    4    0  502 +3.3871174436e+01 -8.7297900963e+01 -3.2133809186e+02 3.3472990163e+02 4.2140000000e+00 0.0000e+00 1.0000e+00
<mgrwt>
<rscale>  0 0.14000016E+04</rscale>
<asrwt>0</asrwt>
<pdfrwt beam="1">  1       21 0.89229570E-01 0.14000016E+04</pdfrwt>
<pdfrwt beam="2">  1       21 0.12997553E+00 0.14000016E+04</pdfrwt>
<totfact> 0.34818543E+02</totfact>
</mgrwt>
<rwgt>
<wgt id='1001'> +2.8343000e+11 </wgt>
<wgt id='1002'> +3.1618145e+11 </wgt>
<wgt id='1003'> +3.1616432e+11 </wgt>
<wgt id='1004'> +3.5714358e+11 </wgt>
<wgt id='1005'> +2.8343000e+11 </wgt>
<wgt id='1006'> +2.8343000e+11 </wgt>
<wgt id='1007'> +3.1618145e+11 </wgt>
<wgt id='1008'> +3.1616432e+11 </wgt>
<wgt id='1009'> +3.5714358e+11 </wgt>
<wgt id='1010'> +2.8343000e+11 </wgt>
<wgt id='1011'> +2.8343000e+11 </wgt>
<wgt id='1012'> +3.1618145e+11 </wgt>
<wgt id='1013'> +3.1616432e+11 </wgt>
<wgt id='1014'> +3.5714358e+11 </wgt>
<wgt id='1015'> +2.8343000e+11 </wgt>
<wgt id='1016'> +2.5459200e+11 </wgt>
<wgt id='1017'> +2.8207295e+11 </wgt>
<wgt id='1018'> +2.8205866e+11 </wgt>
<wgt id='1019'> +3.1616432e+11 </wgt>
<wgt id='1020'> +2.5459200e+11 </wgt>
<wgt id='1021'> +2.5459200e+11 </wgt>
<wgt id='1022'> +2.8207295e+11 </wgt>
<wgt id='1023'> +2.8205866e+11 </wgt>
<wgt id='1024'> +3.1616432e+11 </wgt>
<wgt id='1025'> +2.5459200e+11 </wgt>
<wgt id='1026'> +2.5459200e+11 </wgt>
<wgt id='1027'> +2.8207295e+11 </wgt>
<wgt id='1028'> +2.8205866e+11 </wgt>
<wgt id='1029'> +3.1616432e+11 </wgt>
<wgt id='1030'> +2.5459200e+11 </wgt>
<wgt id='1031'> +3.1780936e+11 </wgt>
<wgt id='1032'> +3.5716431e+11 </wgt>
<wgt id='1033'> +3.5714358e+11 </wgt>
<wgt id='1034'> +4.0706940e+11 </wgt>
<wgt id='1035'> +3.1780935e+11 </wgt>
<wgt id='1036'> +3.1780936e+11 </wgt>
<wgt id='1037'> +3.5716431e+11 </wgt>
<wgt id='1038'> +3.5714358e+11 </wgt>
<wgt id='1039'> +4.0706940e+11 </wgt>
<wgt id='1040'> +3.1780935e+11 </wgt>
<wgt id='1041'> +3.1780936e+11 </wgt>
<wgt id='1042'> +3.5716431e+11 </wgt>
<wgt id='1043'> +3.5714358e+11 </wgt>
<wgt id='1044'> +4.0706940e+11 </wgt>
<wgt id='1045'> +3.1780935e+11 </wgt>
<wgt id='1046'> +2.8343000e+11 </wgt>
<wgt id='1047'> +2.8343000e+11 </wgt>
<wgt id='1048'> +2.8343000e+11 </wgt>
<wgt id='1049'> +2.8237459e+11 </wgt>
<wgt id='1050'> +2.8310471e+11 </wgt>
<wgt id='1051'> +2.8362361e+11 </wgt>
<wgt id='1052'> +2.8425833e+11 </wgt>
<wgt id='1053'> +2.8185906e+11 </wgt>
<wgt id='1054'> +2.8384635e+11 </wgt>
<wgt id='1055'> +2.8225517e+11 </wgt>
<wgt id='1056'> +2.8189500e+11 </wgt>
<wgt id='1057'> +2.8410271e+11 </wgt>
<wgt id='1058'> +2.8301564e+11 </wgt>
<wgt id='1059'> +2.8537196e+11 </wgt>
<wgt id='1060'> +2.8366796e+11 </wgt>
<wgt id='1061'> +2.8413930e+11 </wgt>
<wgt id='1062'> +2.8405918e+11 </wgt>
<wgt id='1063'> +2.8381355e+11 </wgt>
<wgt id='1064'> +2.8455783e+11 </wgt>
<wgt id='1065'> +2.8482051e+11 </wgt>
<wgt id='1066'> +2.8179954e+11 </wgt>
<wgt id='1067'> +2.8006205e+11 </wgt>
<wgt id='1068'> +2.8367834e+11 </wgt>
<wgt id='1069'> +2.8269658e+11 </wgt>
<wgt id='1070'> +2.8355512e+11 </wgt>
<wgt id='1071'> +2.8456189e+11 </wgt>
<wgt id='1072'> +2.8125286e+11 </wgt>
<wgt id='1073'> +2.8402186e+11 </wgt>
<wgt id='1074'> +2.8319602e+11 </wgt>
<wgt id='1075'> +2.8445279e+11 </wgt>
<wgt id='1076'> +2.8281103e+11 </wgt>
<wgt id='1077'> +2.8273590e+11 </wgt>
<wgt id='1078'> +2.8410622e+11 </wgt>
<wgt id='1079'> +2.8189658e+11 </wgt>
<wgt id='1080'> +2.8287866e+11 </wgt>
<wgt id='1081'> +2.8298445e+11 </wgt>
<wgt id='1082'> +2.8207842e+11 </wgt>
<wgt id='1083'> +2.8394772e+11 </wgt>
<wgt id='1084'> +2.8404883e+11 </wgt>
<wgt id='1085'> +2.8283566e+11 </wgt>
<wgt id='1086'> +2.8288808e+11 </wgt>
<wgt id='1087'> +2.8308774e+11 </wgt>
<wgt id='1088'> +2.8294744e+11 </wgt>
<wgt id='1089'> +2.8278594e+11 </wgt>
<wgt id='1090'> +2.8414453e+11 </wgt>
<wgt id='1091'> +2.8351469e+11 </wgt>
<wgt id='1092'> +2.8367215e+11 </wgt>
<wgt id='1093'> +2.8331078e+11 </wgt>
<wgt id='1094'> +2.8286123e+11 </wgt>
<wgt id='1095'> +2.8356000e+11 </wgt>
<wgt id='1096'> +2.8335406e+11 </wgt>
<wgt id='1097'> +2.8302317e+11 </wgt>
<wgt id='1098'> +2.8308265e+11 </wgt>
<wgt id='1099'> +2.8319361e+11 </wgt>
<wgt id='1100'> +2.8401134e+11 </wgt>
<wgt id='1101'> +2.8340485e+11 </wgt>
<wgt id='1102'> +2.8327864e+11 </wgt>
<wgt id='1103'> +2.8310331e+11 </wgt>
<wgt id='1104'> +2.8311244e+11 </wgt>
<wgt id='1105'> +2.8354760e+11 </wgt>
<wgt id='1106'> +2.8374639e+11 </wgt>
<wgt id='1107'> +2.8332989e+11 </wgt>
<wgt id='1108'> +2.8333878e+11 </wgt>
<wgt id='1109'> +2.8322217e+11 </wgt>
<wgt id='1110'> +2.8375551e+11 </wgt>
<wgt id='1111'> +2.8356060e+11 </wgt>
<wgt id='1112'> +2.8339631e+11 </wgt>
<wgt id='1113'> +2.8374212e+11 </wgt>
<wgt id='1114'> +2.8311387e+11 </wgt>
<wgt id='1115'> +2.8322956e+11 </wgt>
<wgt id='1116'> +2.8376208e+11 </wgt>
<wgt id='1117'> +2.8336836e+11 </wgt>
<wgt id='1118'> +2.8352841e+11 </wgt>
<wgt id='1119'> +2.8324306e+11 </wgt>
<wgt id='1120'> +2.8327272e+11 </wgt>
<wgt id='1121'> +2.8348458e+11 </wgt>
<wgt id='1122'> +2.8322375e+11 </wgt>
<wgt id='1123'> +2.8337769e+11 </wgt>
<wgt id='1124'> +2.8336280e+11 </wgt>
<wgt id='1125'> +2.8358858e+11 </wgt>
<wgt id='1126'> +2.8353719e+11 </wgt>
<wgt id='1127'> +2.8332394e+11 </wgt>
<wgt id='1128'> +2.8346332e+11 </wgt>
<wgt id='1129'> +2.8337571e+11 </wgt>
<wgt id='1130'> +2.8346010e+11 </wgt>
<wgt id='1131'> +2.8371280e+11 </wgt>
<wgt id='1132'> +2.8334945e+11 </wgt>
<wgt id='1133'> +2.8350737e+11 </wgt>
<wgt id='1134'> +2.8340770e+11 </wgt>
<wgt id='1135'> +2.8347306e+11 </wgt>
<wgt id='1136'> +2.8338856e+11 </wgt>
<wgt id='1137'> +2.8327830e+11 </wgt>
<wgt id='1138'> +2.8354696e+11 </wgt>
<wgt id='1139'> +2.8347351e+11 </wgt>
<wgt id='1140'> +2.8363647e+11 </wgt>
<wgt id='1141'> +2.8329227e+11 </wgt>
<wgt id='1142'> +2.8350440e+11 </wgt>
<wgt id='1143'> +2.8359942e+11 </wgt>
<wgt id='1144'> +2.8334303e+11 </wgt>
<wgt id='1145'> +2.8355818e+11 </wgt>
<wgt id='1146'> +2.8341668e+11 </wgt>
<wgt id='1147'> +2.8348000e+11 </wgt>
<wgt id='1148'> +2.8343000e+11 </wgt>
<wgt id='1149'> +2.8343000e+11 </wgt>
<wgt id='1150'> +2.9273474e+11 </wgt>
<wgt id='1151'> +2.8056807e+11 </wgt>
<wgt id='1152'> +2.8374327e+11 </wgt>
<wgt id='1153'> +2.8739102e+11 </wgt>
<wgt id='1154'> +2.8668014e+11 </wgt>
<wgt id='1155'> +2.8902497e+11 </wgt>
<wgt id='1156'> +2.7674172e+11 </wgt>
<wgt id='1157'> +2.7610664e+11 </wgt>
<wgt id='1158'> +2.7750944e+11 </wgt>
<wgt id='1159'> +2.9697539e+11 </wgt>
<wgt id='1160'> +2.8214287e+11 </wgt>
<wgt id='1161'> +2.8551872e+11 </wgt>
<wgt id='1162'> +2.7807242e+11 </wgt>
<wgt id='1163'> +2.8663691e+11 </wgt>
<wgt id='1164'> +2.6827788e+11 </wgt>
<wgt id='1165'> +2.7882242e+11 </wgt>
<wgt id='1166'> +2.8461216e+11 </wgt>
<wgt id='1167'> +2.7950457e+11 </wgt>
<wgt id='1168'> +2.7619968e+11 </wgt>
<wgt id='1169'> +2.7585071e+11 </wgt>
<wgt id='1170'> +2.7760963e+11 </wgt>
<wgt id='1171'> +2.7328390e+11 </wgt>
<wgt id='1172'> +2.7711985e+11 </wgt>
<wgt id='1173'> +2.8744657e+11 </wgt>
<wgt id='1174'> +2.7913901e+11 </wgt>
<wgt id='1175'> +2.7573794e+11 </wgt>
<wgt id='1176'> +2.8634903e+11 </wgt>
<wgt id='1177'> +2.7893119e+11 </wgt>
<wgt id='1178'> +2.8309133e+11 </wgt>
<wgt id='1179'> +2.8049075e+11 </wgt>
<wgt id='1180'> +2.8576800e+11 </wgt>
<wgt id='1181'> +2.7854642e+11 </wgt>
<wgt id='1182'> +2.8124073e+11 </wgt>
<wgt id='1183'> +2.9478758e+11 </wgt>
<wgt id='1184'> +2.7859805e+11 </wgt>
<wgt id='1185'> +2.8261514e+11 </wgt>
<wgt id='1186'> +2.7266270e+11 </wgt>
<wgt id='1187'> +2.8536870e+11 </wgt>
<wgt id='1188'> +2.7968060e+11 </wgt>
<wgt id='1189'> +2.8494205e+11 </wgt>
<wgt id='1190'> +2.8368659e+11 </wgt>
<wgt id='1191'> +2.9438904e+11 </wgt>
<wgt id='1192'> +2.9132920e+11 </wgt>
<wgt id='1193'> +2.9468532e+11 </wgt>
<wgt id='1194'> +2.8401312e+11 </wgt>
<wgt id='1195'> +2.8369152e+11 </wgt>
<wgt id='1196'> +2.9220422e+11 </wgt>
<wgt id='1197'> +2.9351253e+11 </wgt>
<wgt id='1198'> +2.7685907e+11 </wgt>
<wgt id='1199'> +2.8328803e+11 </wgt>
<wgt id='1200'> +2.8301091e+11 </wgt>
<wgt id='1201'> +2.7939407e+11 </wgt>
<wgt id='1202'> +2.8832445e+11 </wgt>
<wgt id='1203'> +2.7808252e+11 </wgt>
<wgt id='1204'> +2.8741971e+11 </wgt>
<wgt id='1205'> +2.8473148e+11 </wgt>
<wgt id='1206'> +2.7695603e+11 </wgt>
<wgt id='1207'> +2.9272307e+11 </wgt>
<wgt id='1208'> +2.7238318e+11 </wgt>
<wgt id='1209'> +2.7935786e+11 </wgt>
<wgt id='1210'> +2.8107167e+11 </wgt>
<wgt id='1211'> +2.8576686e+11 </wgt>
<wgt id='1212'> +2.8349166e+11 </wgt>
<wgt id='1213'> +2.9275568e+11 </wgt>
<wgt id='1214'> +2.7584310e+11 </wgt>
<wgt id='1215'> +2.9102910e+11 </wgt>
<wgt id='1216'> +2.8561146e+11 </wgt>
<wgt id='1217'> +2.7604000e+11 </wgt>
<wgt id='1218'> +2.8472049e+11 </wgt>
<wgt id='1219'> +2.9422508e+11 </wgt>
<wgt id='1220'> +2.7739946e+11 </wgt>
<wgt id='1221'> +2.7526287e+11 </wgt>
<wgt id='1222'> +2.8003153e+11 </wgt>
<wgt id='1223'> +2.7264825e+11 </wgt>
<wgt id='1224'> +2.8344390e+11 </wgt>
<wgt id='1225'> +2.8823697e+11 </wgt>
<wgt id='1226'> +2.8999770e+11 </wgt>
<wgt id='1227'> +2.7414760e+11 </wgt>
<wgt id='1228'> +2.8147104e+11 </wgt>
<wgt id='1229'> +3.0264162e+11 </wgt>
<wgt id='1230'> +2.9348754e+11 </wgt>
<wgt id='1231'> +2.7882242e+11 </wgt>
<wgt id='1232'> +2.8872980e+11 </wgt>
<wgt id='1233'> +2.7780242e+11 </wgt>
<wgt id='1234'> +2.7639201e+11 </wgt>
<wgt id='1235'> +3.0236128e+11 </wgt>
<wgt id='1236'> +2.7663411e+11 </wgt>
<wgt id='1237'> +2.8955610e+11 </wgt>
<wgt id='1238'> +2.8858850e+11 </wgt>
<wgt id='1239'> +2.9102824e+11 </wgt>
<wgt id='1240'> +2.8448493e+11 </wgt>
<wgt id='1241'> +2.8234356e+11 </wgt>
<wgt id='1242'> +2.8052553e+11 </wgt>
<wgt id='1243'> +2.8843881e+11 </wgt>
<wgt id='1244'> +2.8168533e+11 </wgt>
<wgt id='1245'> +2.8145019e+11 </wgt>
<wgt id='1246'> +3.0680141e+11 </wgt>
<wgt id='1247'> +2.8326245e+11 </wgt>
<wgt id='1248'> +2.7493164e+11 </wgt>
<wgt id='1249'> +2.7728256e+11 </wgt>
<wgt id='1250'> +2.9220005e+11 </wgt>
<wgt id='1251'> +2.9831361e+11 </wgt>
<wgt id='1252'> +2.8664592e+11 </wgt>
<wgt id='1253'> +2.8507868e+11 </wgt>
<wgt id='1254'> +2.8800181e+11 </wgt>
<wgt id='1255'> +2.9782353e+11 </wgt>
<wgt id='1256'> +2.9580499e+11 </wgt>
<wgt id='1257'> +2.8698066e+11 </wgt>
<wgt id='1258'> +2.9874734e+11 </wgt>
<wgt id='1259'> +2.9474431e+11 </wgt>
<wgt id='1260'> +3.2486025e+11 </wgt>
<wgt id='1261'> +3.1311005e+11 </wgt>
<wgt id='1262'> +2.8935723e+11 </wgt>
<wgt id='1263'> +2.9636460e+11 </wgt>
<wgt id='1264'> +2.9832982e+11 </wgt>
<wgt id='1265'> +2.9762705e+11 </wgt>
<wgt id='1266'> +2.9463199e+11 </wgt>
<wgt id='1267'> +3.1788715e+11 </wgt>
<wgt id='1268'> +2.9308696e+11 </wgt>
<wgt id='1269'> +2.8656384e+11 </wgt>
<wgt id='1270'> +2.9208854e+11 </wgt>
<wgt id='1271'> +2.7744636e+11 </wgt>
<wgt id='1272'> +2.9266641e+11 </wgt>
<wgt id='1273'> +2.9106811e+11 </wgt>
<wgt id='1274'> +2.8677612e+11 </wgt>
<wgt id='1275'> +2.9745310e+11 </wgt>
<wgt id='1276'> +2.9546383e+11 </wgt>
<wgt id='1277'> +2.9078707e+11 </wgt>
<wgt id='1278'> +2.8763854e+11 </wgt>
<wgt id='1279'> +2.8042560e+11 </wgt>
<wgt id='1280'> +2.9215296e+11 </wgt>
<wgt id='1281'> +2.8504542e+11 </wgt>
<wgt id='1282'> +2.9584077e+11 </wgt>
<wgt id='1283'> +2.9663896e+11 </wgt>
<wgt id='1284'> +3.1360613e+11 </wgt>
<wgt id='1285'> +3.0754060e+11 </wgt>
<wgt id='1286'> +3.2804908e+11 </wgt>
<wgt id='1287'> +3.0273807e+11 </wgt>
<wgt id='1288'> +3.2367420e+11 </wgt>
<wgt id='1289'> +3.1242698e+11 </wgt>
<wgt id='1290'> +3.1083548e+11 </wgt>
<wgt id='1291'> +2.7727445e+11 </wgt>
<wgt id='1292'> +2.9727811e+11 </wgt>
<wgt id='1293'> +2.9988700e+11 </wgt>
<wgt id='1294'> +3.1431250e+11 </wgt>
<wgt id='1295'> +2.9926631e+11 </wgt>
<wgt id='1296'> +3.1576416e+11 </wgt>
<wgt id='1297'> +2.9451989e+11 </wgt>
<wgt id='1298'> +2.8706797e+11 </wgt>
<wgt id='1299'> +2.9846203e+11 </wgt>
<wgt id='1300'> +2.8756116e+11 </wgt>
<wgt id='1301'> +2.7993075e+11 </wgt>
<wgt id='1302'> +2.7653340e+11 </wgt>
<wgt id='1303'> +2.9811647e+11 </wgt>
<wgt id='1304'> +3.0706169e+11 </wgt>
<wgt id='1305'> +2.9773815e+11 </wgt>
<wgt id='1306'> +3.0461772e+11 </wgt>
<wgt id='1307'> +3.0168056e+11 </wgt>
<wgt id='1308'> +3.2508823e+11 </wgt>
<wgt id='1309'> +2.9551484e+11 </wgt>
<wgt id='1310'> +3.0156733e+11 </wgt>
<wgt id='1311'> +3.0648004e+11 </wgt>
<wgt id='1312'> +2.9936724e+11 </wgt>
<wgt id='1313'> +2.9676722e+11 </wgt>
<wgt id='1314'> +3.0268366e+11 </wgt>
<wgt id='1315'> +2.8455726e+11 </wgt>
<wgt id='1316'> +2.9810029e+11 </wgt>
<wgt id='1317'> +3.0133566e+11 </wgt>
<wgt id='1318'> +2.8659714e+11 </wgt>
<wgt id='1319'> +3.0576243e+11 </wgt>
<wgt id='1320'> +3.0912703e+11 </wgt>
<wgt id='1321'> +2.9349152e+11 </wgt>
<wgt id='1322'> +2.9749477e+11 </wgt>
<wgt id='1323'> +2.9729295e+11 </wgt>
<wgt id='1324'> +3.0098489e+11 </wgt>
<wgt id='1325'> +3.1037965e+11 </wgt>
<wgt id='1326'> +3.0286630e+11 </wgt>
<wgt id='1327'> +2.9466927e+11 </wgt>
<wgt id='1328'> +3.0114855e+11 </wgt>
<wgt id='1329'> +2.9714401e+11 </wgt>
<wgt id='1330'> +2.8960916e+11 </wgt>
<wgt id='1331'> +3.1885412e+11 </wgt>
<wgt id='1332'> +2.8622186e+11 </wgt>
<wgt id='1333'> +3.0017171e+11 </wgt>
<wgt id='1334'> +3.1334293e+11 </wgt>
<wgt id='1335'> +2.9199235e+11 </wgt>
<wgt id='1336'> +3.0279667e+11 </wgt>
<wgt id='1337'> +3.0785277e+11 </wgt>
<wgt id='1338'> +2.8903133e+11 </wgt>
<wgt id='1339'> +3.1928002e+11 </wgt>
<wgt id='1340'> +3.0126156e+11 </wgt>
<wgt id='1341'> +3.0543274e+11 </wgt>
<wgt id='1342'> +3.1381166e+11 </wgt>
<wgt id='1343'> +3.0939843e+11 </wgt>
<wgt id='1344'> +3.0411104e+11 </wgt>
<wgt id='1345'> +2.7806794e+11 </wgt>
<wgt id='1346'> +2.9926587e+11 </wgt>
<wgt id='1347'> +2.8655156e+11 </wgt>
<wgt id='1348'> +2.8736160e+11 </wgt>
<wgt id='1349'> +2.8872250e+11 </wgt>
<wgt id='1350'> +3.0034114e+11 </wgt>
<wgt id='1351'> +2.9563395e+11 </wgt>
<wgt id='1352'> +3.0010833e+11 </wgt>
<wgt id='1353'> +2.9678160e+11 </wgt>
<wgt id='1354'> +3.0642186e+11 </wgt>
<wgt id='1355'> +2.7565482e+11 </wgt>
<wgt id='1356'> +2.7839737e+11 </wgt>
<wgt id='1357'> +2.7642947e+11 </wgt>
<wgt id='1358'> +2.7315547e+11 </wgt>
<wgt id='1359'> +2.7632401e+11 </wgt>
<wgt id='1360'> +2.6908606e+11 </wgt>
<wgt id='1361'> +2.7557450e+11 </wgt>
<wgt id='1362'> +2.7806649e+11 </wgt>
<wgt id='1363'> +2.6983138e+11 </wgt>
<wgt id='1364'> +2.8166974e+11 </wgt>
<wgt id='1365'> +2.7334235e+11 </wgt>
<wgt id='1366'> +2.7535721e+11 </wgt>
<wgt id='1367'> +2.7645967e+11 </wgt>
<wgt id='1368'> +2.7573413e+11 </wgt>
<wgt id='1369'> +2.7964954e+11 </wgt>
<wgt id='1370'> +2.7379016e+11 </wgt>
<wgt id='1371'> +2.7373039e+11 </wgt>
<wgt id='1372'> +2.7995531e+11 </wgt>
<wgt id='1373'> +2.7922465e+11 </wgt>
<wgt id='1374'> +2.6756358e+11 </wgt>
<wgt id='1375'> +2.7478489e+11 </wgt>
<wgt id='1376'> +2.7635530e+11 </wgt>
<wgt id='1377'> +2.7571968e+11 </wgt>
<wgt id='1378'> +2.7180989e+11 </wgt>
<wgt id='1379'> +2.7412419e+11 </wgt>
<wgt id='1380'> +2.7394629e+11 </wgt>
<wgt id='1381'> +2.8093054e+11 </wgt>
<wgt id='1382'> +2.7522882e+11 </wgt>
<wgt id='1383'> +2.7537626e+11 </wgt>
<wgt id='1384'> +2.7384657e+11 </wgt>
<wgt id='1385'> +2.7392234e+11 </wgt>
<wgt id='1386'> +2.7728918e+11 </wgt>
<wgt id='1387'> +2.7457161e+11 </wgt>
<wgt id='1388'> +2.7180914e+11 </wgt>
<wgt id='1389'> +2.7409935e+11 </wgt>
<wgt id='1390'> +2.7492697e+11 </wgt>
<wgt id='1391'> +2.7340551e+11 </wgt>
<wgt id='1392'> +2.7346781e+11 </wgt>
<wgt id='1393'> +2.7388881e+11 </wgt>
<wgt id='1394'> +2.7343521e+11 </wgt>
<wgt id='1395'> +2.7133834e+11 </wgt>
<wgt id='1396'> +2.7662607e+11 </wgt>
<wgt id='1397'> +2.7630963e+11 </wgt>
<wgt id='1398'> +2.7639934e+11 </wgt>
<wgt id='1399'> +2.7147896e+11 </wgt>
<wgt id='1400'> +2.7254503e+11 </wgt>
<wgt id='1401'> +2.7441543e+11 </wgt>
<wgt id='1402'> +2.7885201e+11 </wgt>
<wgt id='1403'> +2.7912540e+11 </wgt>
<wgt id='1404'> +2.7391884e+11 </wgt>
<wgt id='1405'> +2.8177418e+11 </wgt>
<wgt id='1406'> +2.7561218e+11 </wgt>
<wgt id='1407'> +2.7628414e+11 </wgt>
<wgt id='1408'> +2.7900622e+11 </wgt>
<wgt id='1409'> +2.7338453e+11 </wgt>
<wgt id='1410'> +2.7280309e+11 </wgt>
<wgt id='1411'> +2.7534501e+11 </wgt>
<wgt id='1412'> +2.7438116e+11 </wgt>
<wgt id='1413'> +2.7265546e+11 </wgt>
<wgt id='1414'> +2.7750312e+11 </wgt>
<wgt id='1415'> +2.8116116e+11 </wgt>
<wgt id='1416'> +2.7869519e+11 </wgt>
<wgt id='1417'> +2.6931234e+11 </wgt>
<wgt id='1418'> +2.7714065e+11 </wgt>
<wgt id='1419'> +2.7926128e+11 </wgt>
<wgt id='1420'> +2.7479917e+11 </wgt>
<wgt id='1421'> +2.8171143e+11 </wgt>
<wgt id='1422'> +2.6821149e+11 </wgt>
<wgt id='1423'> +2.8086416e+11 </wgt>
<wgt id='1424'> +2.7673210e+11 </wgt>
<wgt id='1425'> +2.7595023e+11 </wgt>
<wgt id='1426'> +2.7900017e+11 </wgt>
<wgt id='1427'> +2.7557176e+11 </wgt>
<wgt id='1428'> +2.7545208e+11 </wgt>
<wgt id='1429'> +2.7197519e+11 </wgt>
<wgt id='1430'> +2.7102310e+11 </wgt>
<wgt id='1431'> +2.7084427e+11 </wgt>
<wgt id='1432'> +2.7729367e+11 </wgt>
<wgt id='1433'> +2.7601608e+11 </wgt>
<wgt id='1434'> +2.8250695e+11 </wgt>
<wgt id='1435'> +2.7474570e+11 </wgt>
<wgt id='1436'> +2.7971047e+11 </wgt>
<wgt id='1437'> +2.7803829e+11 </wgt>
<wgt id='1438'> +2.7385272e+11 </wgt>
<wgt id='1439'> +2.7672579e+11 </wgt>
<wgt id='1440'> +2.8002914e+11 </wgt>
<wgt id='1441'> +2.7526267e+11 </wgt>
<wgt id='1442'> +2.8298254e+11 </wgt>
<wgt id='1443'> +2.7376904e+11 </wgt>
<wgt id='1444'> +2.7439086e+11 </wgt>
<wgt id='1445'> +2.7839474e+11 </wgt>
<wgt id='1446'> +2.7825120e+11 </wgt>
<wgt id='1447'> +2.7183888e+11 </wgt>
<wgt id='1448'> +2.7802512e+11 </wgt>
<wgt id='1449'> +2.7721586e+11 </wgt>
<wgt id='1450'> +2.7394325e+11 </wgt>
<wgt id='1451'> +2.7696097e+11 </wgt>
<wgt id='1452'> +2.7868356e+11 </wgt>
<wgt id='1453'> +2.8020177e+11 </wgt>
<wgt id='1454'> +2.6889187e+11 </wgt>
<wgt id='1455'> +2.7485330e+11 </wgt>
<wgt id='1456'> +2.7486948e+11 </wgt>
<wgt id='1457'> +2.7445091e+11 </wgt>
<wgt id='1458'> +2.7782363e+11 </wgt>
<wgt id='1459'> +3.0579855e+11 </wgt>
<wgt id='1460'> +3.0109667e+11 </wgt>
<wgt id='1461'> +3.4902542e+11 </wgt>
<wgt id='1462'> +2.9955390e+11 </wgt>
<wgt id='1463'> +2.9980160e+11 </wgt>
<wgt id='1464'> +2.9923626e+11 </wgt>
<wgt id='1465'> +2.9961573e+11 </wgt>
<wgt id='1466'> +2.9949744e+11 </wgt>
<wgt id='1467'> +2.9971339e+11 </wgt>
<wgt id='1468'> +2.9929226e+11 </wgt>
<wgt id='1469'> +2.9910501e+11 </wgt>
<wgt id='1470'> +2.9991851e+11 </wgt>
<wgt id='1471'> +3.0003006e+11 </wgt>
<wgt id='1472'> +2.9906349e+11 </wgt>
<wgt id='1473'> +3.0070717e+11 </wgt>
<wgt id='1474'> +2.9844622e+11 </wgt>
<wgt id='1475'> +3.0065385e+11 </wgt>
<wgt id='1476'> +2.9877407e+11 </wgt>
<wgt id='1477'> +2.9898252e+11 </wgt>
<wgt id='1478'> +3.0088864e+11 </wgt>
<wgt id='1479'> +2.9899436e+11 </wgt>
<wgt id='1480'> +2.9994481e+11 </wgt>
<wgt id='1481'> +2.9912738e+11 </wgt>
<wgt id='1482'> +3.0012916e+11 </wgt>
<wgt id='1483'> +2.9965028e+11 </wgt>
<wgt id='1484'> +2.9941715e+11 </wgt>
<wgt id='1485'> +2.9975616e+11 </wgt>
<wgt id='1486'> +2.9906687e+11 </wgt>
<wgt id='1487'> +2.9980565e+11 </wgt>
<wgt id='1488'> +2.9923753e+11 </wgt>
<wgt id='1489'> +2.9920137e+11 </wgt>
<wgt id='1490'> +3.0050963e+11 </wgt>
<wgt id='1491'> +3.0447541e+11 </wgt>
<wgt id='1492'> +2.9680726e+11 </wgt>
<wgt id='1493'> +2.9604857e+11 </wgt>
<wgt id='1494'> +3.1054036e+11 </wgt>
<wgt id='1495'> +2.9891073e+11 </wgt>
<wgt id='1496'> +3.0024381e+11 </wgt>
<wgt id='1497'> +2.9975271e+11 </wgt>
<wgt id='1498'> +2.9928220e+11 </wgt>
<wgt id='1499'> +3.0143004e+11 </wgt>
<wgt id='1500'> +2.9852761e+11 </wgt>
<wgt id='1501'> +3.0001537e+11 </wgt>
<wgt id='1502'> +2.9833091e+11 </wgt>
<wgt id='1503'> +2.9638329e+11 </wgt>
<wgt id='1504'> +3.0292606e+11 </wgt>
<wgt id='1505'> +3.0056617e+11 </wgt>
<wgt id='1506'> +2.9858024e+11 </wgt>
<wgt id='1507'> +3.0093783e+11 </wgt>
<wgt id='1508'> +2.9863835e+11 </wgt>
<wgt id='1509'> +3.0013566e+11 </wgt>
<wgt id='1510'> +2.9705678e+11 </wgt>
<wgt id='1511'> +3.0066891e+11 </wgt>
<wgt id='1512'> +2.9923577e+11 </wgt>
<wgt id='1513'> +2.9947283e+11 </wgt>
<wgt id='1514'> +2.9963012e+11 </wgt>
<wgt id='1515'> +3.0201012e+11 </wgt>
<wgt id='1516'> +2.9998125e+11 </wgt>
<wgt id='1517'> +2.9917649e+11 </wgt>
<wgt id='1518'> +2.9987353e+11 </wgt>
<wgt id='1519'> +2.9791314e+11 </wgt>
<wgt id='1520'> +3.0072146e+11 </wgt>
<wgt id='1521'> +2.9877073e+11 </wgt>
<wgt id='1522'> +3.0002237e+11 </wgt>
<wgt id='1523'> +3.0090810e+11 </wgt>
<wgt id='1524'> +3.0092232e+11 </wgt>
<wgt id='1525'> +3.0077144e+11 </wgt>
<wgt id='1526'> +3.0035978e+11 </wgt>
<wgt id='1527'> +2.9955390e+11 </wgt>
<wgt id='1528'> +2.9934330e+11 </wgt>
<wgt id='1529'> +2.9924557e+11 </wgt>
<wgt id='1530'> +2.9550180e+11 </wgt>
<wgt id='1531'> +2.9677890e+11 </wgt>
<wgt id='1532'> +2.9439105e+11 </wgt>
<wgt id='1533'> +2.9229239e+11 </wgt>
<wgt id='1534'> +2.9516307e+11 </wgt>
<wgt id='1535'> +2.9922845e+11 </wgt>
<wgt id='1536'> +2.9390162e+11 </wgt>
<wgt id='1537'> +2.9668243e+11 </wgt>
<wgt id='1538'> +2.9362098e+11 </wgt>
<wgt id='1539'> +3.0290486e+11 </wgt>
<wgt id='1540'> +2.9599668e+11 </wgt>
<wgt id='1541'> +2.9706362e+11 </wgt>
<wgt id='1542'> +2.9671239e+11 </wgt>
<wgt id='1543'> +2.9788549e+11 </wgt>
<wgt id='1544'> +2.9486745e+11 </wgt>
<wgt id='1545'> +2.9480870e+11 </wgt>
<wgt id='1546'> +2.9285658e+11 </wgt>
<wgt id='1547'> +2.9908190e+11 </wgt>
<wgt id='1548'> +2.9480605e+11 </wgt>
<wgt id='1549'> +2.9338754e+11 </wgt>
<wgt id='1550'> +2.9747829e+11 </wgt>
<wgt id='1551'> +2.9740233e+11 </wgt>
<wgt id='1552'> +2.9614957e+11 </wgt>
<wgt id='1553'> +2.9870783e+11 </wgt>
<wgt id='1554'> +2.9663143e+11 </wgt>
<wgt id='1555'> +2.9740007e+11 </wgt>
<wgt id='1556'> +2.9915872e+11 </wgt>
<wgt id='1557'> +2.9586229e+11 </wgt>
<wgt id='1558'> +2.9678780e+11 </wgt>
<wgt id='1559'> +2.9471084e+11 </wgt>
<wgt id='1560'> +2.9554352e+11 </wgt>
<wgt id='1561'> +2.9299456e+11 </wgt>
<wgt id='1562'> +2.9537121e+11 </wgt>
<wgt id='1563'> +2.9673984e+11 </wgt>
<wgt id='1564'> +2.9636877e+11 </wgt>
<wgt id='1565'> +2.9892719e+11 </wgt>
<wgt id='1566'> +2.9697204e+11 </wgt>
<wgt id='1567'> +3.0030604e+11 </wgt>
<wgt id='1568'> +2.9671803e+11 </wgt>
<wgt id='1569'> +2.9641760e+11 </wgt>
<wgt id='1570'> +3.0011166e+11 </wgt>
<wgt id='1571'> +2.9656236e+11 </wgt>
<wgt id='1572'> +2.9859507e+11 </wgt>
<wgt id='1573'> +2.9973467e+11 </wgt>
<wgt id='1574'> +2.6748564e+11 </wgt>
<wgt id='1575'> +2.6755844e+11 </wgt>
<wgt id='1576'> +2.6741762e+11 </wgt>
<wgt id='1577'> +2.6750406e+11 </wgt>
<wgt id='1578'> +2.6810018e+11 </wgt>
<wgt id='1579'> +2.6835075e+11 </wgt>
<wgt id='1580'> +2.6812331e+11 </wgt>
<wgt id='1581'> +2.6685952e+11 </wgt>
<wgt id='1582'> +2.6655227e+11 </wgt>
<wgt id='1583'> +2.6703561e+11 </wgt>
<wgt id='1584'> +2.6806958e+11 </wgt>
<wgt id='1585'> +2.6767715e+11 </wgt>
<wgt id='1586'> +2.6646443e+11 </wgt>
<wgt id='1587'> +2.6671964e+11 </wgt>
<wgt id='1588'> +2.6621559e+11 </wgt>
<wgt id='1589'> +2.6722915e+11 </wgt>
<wgt id='1590'> +2.6730001e+11 </wgt>
<wgt id='1591'> +2.6755420e+11 </wgt>
<wgt id='1592'> +2.6645007e+11 </wgt>
<wgt id='1593'> +2.6660809e+11 </wgt>
<wgt id='1594'> +2.6830992e+11 </wgt>
<wgt id='1595'> +2.6523303e+11 </wgt>
<wgt id='1596'> +2.7110106e+11 </wgt>
<wgt id='1597'> +2.6922928e+11 </wgt>
<wgt id='1598'> +2.6945063e+11 </wgt>
<wgt id='1599'> +2.6472490e+11 </wgt>
<wgt id='1600'> +2.7193410e+11 </wgt>
<wgt id='1601'> +2.6963048e+11 </wgt>
<wgt id='1602'> +2.6754237e+11 </wgt>
<wgt id='1603'> +2.7811640e+11 </wgt>
<wgt id='1604'> +2.6747805e+11 </wgt>
</rwgt>
</event>
<event>
 9      1 +2.8343000e+11 1.40000100e+03 7.81738600e-03 7.88881100e-02
       21 -1    0    0  504  503 +0.0000000000e+00 +0.0000000000e+00 +6.1208861829e+02 6.1208861829e+02 0.0000000000e+00 0.0000e+00 -1.0000e+00
       21 -1    0    0  503  504 -0.0000000000e+00 -0.0000000000e+00 -8.0053868002e+02 8.0053868002e+02 0.0000000000e+00 0.0000e+00 -1.0000e+00
       45  2    1    2    0    0 +1.1368683772e-13 +0.0000000000e+00 -1.8845006172e+02 1.4126272983e+03 1.4000008779e+03 0.0000e+00 0.0000e+00
       25  2    3    3    0    0 +5.3550900018e+02 +2.8059466458e+02 -4.3323518800e+02 7.5420259148e+02 1.2500226318e+02 0.0000e+00 0.0000e+00
       35  2    3    3    0    0 -5.3550900018e+02 -2.8059466458e+02 +2.4478512628e+02 6.5842470683e+02 9.0000452493e+01 0.0000e+00 0.0000e+00
        5  1    5    5  501    0 -1.0137930999e+01 -2.4138869399e+01 +1.2740817289e+01 2.9420212134e+01 4.2140000000e+00 0.0000e+00 -1.0000e+00
       -5  1    5    5    0  501 -5.2537106919e+02 -2.5645579518e+02 +2.3204430899e+02 6.2900449470e+02 4.2140000000e+00 0.0000e+00 -1.0000e+00
        5  1    4    4  502    0 +2.6523669011e+02 +8.8556335892e+01 -2.5135004955e+02 3.7601506833e+02 4.2140000000e+00 0.0000e+00 1.0000e+00
       -5  1    4    4    0  502 +2.7027231007e+02 +1.9203832869e+02 -1.8188513845e+02 3.7818752314e+02 4.2140000000e+00 0.0000e+00 1.0000e+00
<mgrwt>
<rscale>  0 0.14000009E+04</rscale>
<asrwt>0</asrwt>
<pdfrwt beam="1">  1       21 0.94167479E-01 0.14000009E+04</pdfrwt>
<pdfrwt beam="2">  1       21 0.12315980E+00 0.14000009E+04</pdfrwt>
<totfact> 0.35320908E+02</totfact>
</mgrwt>
<rwgt>
<wgt id='1001'> +2.8343000e+11 </wgt>
<wgt id='1002'> +2.8964475e+11 </wgt>
<wgt id='1003'> +2.8964145e+11 </wgt>
<wgt id='1004'> +3.2520894e+11 </wgt>
<wgt id='1005'> +2.8343000e+11 </wgt>
<wgt id='1006'> +2.8343000e+11 </wgt>
<wgt id='1007'> +2.8964475e+11 </wgt>
<wgt id='1008'> +2.8964145e+11 </wgt>
<wgt id='1009'> +3.2520894e+11 </wgt>
<wgt id='1010'> +2.8343000e+11 </wgt>
<wgt id='1011'> +2.8343000e+11 </wgt>
<wgt id='1012'> +2.8964475e+11 </wgt>
<wgt id='1013'> +2.8964145e+11 </wgt>
<wgt id='1014'> +3.2520894e+11 </wgt>
<wgt id='1015'> +2.8343000e+11 </wgt>
<wgt id='1016'> +2.5463813e+11 </wgt>
<wgt id='1017'> +2.5989947e+11 </wgt>
<wgt id='1018'> +2.5989668e+11 </wgt>
<wgt id='1019'> +2.8964145e+11 </wgt>
<wgt id='1020'> +2.5463813e+11 </wgt>
<wgt id='1021'> +2.5463813e+11 </wgt>
<wgt id='1022'> +2.5989947e+11 </wgt>
<wgt id='1023'> +2.5989668e+11 </wgt>
<wgt id='1024'> +2.8964145e+11 </wgt>
<wgt id='1025'> +2.5463813e+11 </wgt>
<wgt id='1026'> +2.5463813e+11 </wgt>
<wgt id='1027'> +2.5989947e+11 </wgt>
<wgt id='1028'> +2.5989668e+11 </wgt>
<wgt id='1029'> +2.8964145e+11 </wgt>
<wgt id='1030'> +2.5463813e+11 </wgt>
<wgt id='1031'> +3.1774779e+11 </wgt>
<wgt id='1032'> +3.2521291e+11 </wgt>
<wgt id='1033'> +3.2520894e+11 </wgt>
<wgt id='1034'> +3.6805432e+11 </wgt>
<wgt id='1035'> +3.1774779e+11 </wgt>
<wgt id='1036'> +3.1774779e+11 </wgt>
<wgt id='1037'> +3.2521291e+11 </wgt>
<wgt id='1038'> +3.2520894e+11 </wgt>
<wgt id='1039'> +3.6805432e+11 </wgt>
<wgt id='1040'> +3.1774779e+11 </wgt>
<wgt id='1041'> +3.1774779e+11 </wgt>
<wgt id='1042'> +3.2521291e+11 </wgt>
<wgt id='1043'> +3.2520894e+11 </wgt>
<wgt id='1044'> +3.6805432e+11 </wgt>
<wgt id='1045'> +3.1774779e+11 </wgt>
<wgt id='1046'> +2.8343000e+11 </wgt>
<wgt id='1047'> +2.8343000e+11 </wgt>
<wgt id='1048'> +2.8343000e+11 </wgt>
<wgt id='1049'> +2.8231760e+11 </wgt>
<wgt id='1050'> +2.8307484e+11 </wgt>
<wgt id='1051'> +2.8369302e+11 </wgt>
<wgt id='1052'> +2.8423105e+11 </wgt>
<wgt id='1053'> +2.8187702e+11 </wgt>
<wgt id='1054'> +2.8386666e+11 </wgt>
<wgt id='1055'> +2.8225228e+11 </wgt>
<wgt id='1056'> +2.8185201e+11 </wgt>
<wgt id='1057'> +2.8415991e+11 </wgt>
<wgt id='1058'> +2.8303649e+11 </wgt>
<wgt id='1059'> +2.8540049e+11 </wgt>
<wgt id='1060'> +2.8365772e+11 </wgt>
<wgt id='1061'> +2.8417378e+11 </wgt>
<wgt id='1062'> +2.8403205e+11 </wgt>
<wgt id='1063'> +2.8372818e+11 </wgt>
<wgt id='1064'> +2.8463338e+11 </wgt>
<wgt id='1065'> +2.8485095e+11 </wgt>
<wgt id='1066'> +2.8190036e+11 </wgt>
<wgt id='1067'> +2.7986309e+11 </wgt>
<wgt id='1068'> +2.8375459e+11 </wgt>
<wgt id='1069'> +2.8273749e+11 </wgt>
<wgt id='1070'> +2.8349056e+11 </wgt>
<wgt id='1071'> +2.8474570e+11 </wgt>
<wgt id='1072'> +2.8117779e+11 </wgt>
<wgt id='1073'> +2.8407454e+11 </wgt>
<wgt id='1074'> +2.8312502e+11 </wgt>
<wgt id='1075'> +2.8443033e+11 </wgt>
<wgt id='1076'> +2.8303457e+11 </wgt>
<wgt id='1077'> +2.8285477e+11 </wgt>
<wgt id='1078'> +2.8410474e+11 </wgt>
<wgt id='1079'> +2.8183762e+11 </wgt>
<wgt id='1080'> +2.8282292e+11 </wgt>
<wgt id='1081'> +2.8300225e+11 </wgt>
<wgt id='1082'> +2.8205936e+11 </wgt>
<wgt id='1083'> +2.8397838e+11 </wgt>
<wgt id='1084'> +2.8406503e+11 </wgt>
<wgt id='1085'> +2.8284638e+11 </wgt>
<wgt id='1086'> +2.8284270e+11 </wgt>
<wgt id='1087'> +2.8308453e+11 </wgt>
<wgt id='1088'> +2.8294553e+11 </wgt>
<wgt id='1089'> +2.8279654e+11 </wgt>
<wgt id='1090'> +2.8413973e+11 </wgt>
<wgt id='1091'> +2.8350488e+11 </wgt>
<wgt id='1092'> +2.8367972e+11 </wgt>
<wgt id='1093'> +2.8331709e+11 </wgt>
<wgt id='1094'> +2.8288434e+11 </wgt>
<wgt id='1095'> +2.8355119e+11 </wgt>
<wgt id='1096'> +2.8336490e+11 </wgt>
<wgt id='1097'> +2.8302790e+11 </wgt>
<wgt id='1098'> +2.8307734e+11 </wgt>
<wgt id='1099'> +2.8321322e+11 </wgt>
<wgt id='1100'> +2.8401494e+11 </wgt>
<wgt id='1101'> +2.8340553e+11 </wgt>
<wgt id='1102'> +2.8327978e+11 </wgt>
<wgt id='1103'> +2.8310780e+11 </wgt>
<wgt id='1104'> +2.8310574e+11 </wgt>
<wgt id='1105'> +2.8354305e+11 </wgt>
<wgt id='1106'> +2.8375379e+11 </wgt>
<wgt id='1107'> +2.8332926e+11 </wgt>
<wgt id='1108'> +2.8333990e+11 </wgt>
<wgt id='1109'> +2.8322974e+11 </wgt>
<wgt id='1110'> +2.8375920e+11 </wgt>
<wgt id='1111'> +2.8355991e+11 </wgt>
<wgt id='1112'> +2.8339891e+11 </wgt>
<wgt id='1113'> +2.8374119e+11 </wgt>
<wgt id='1114'> +2.8311334e+11 </wgt>
<wgt id='1115'> +2.8324482e+11 </wgt>
<wgt id='1116'> +2.8374686e+11 </wgt>
<wgt id='1117'> +2.8336968e+11 </wgt>
<wgt id='1118'> +2.8353038e+11 </wgt>
<wgt id='1119'> +2.8325082e+11 </wgt>
<wgt id='1120'> +2.8327880e+11 </wgt>
<wgt id='1121'> +2.8348958e+11 </wgt>
<wgt id='1122'> +2.8322767e+11 </wgt>
<wgt id='1123'> +2.8337566e+11 </wgt>
<wgt id='1124'> +2.8335066e+11 </wgt>
<wgt id='1125'> +2.8358840e+11 </wgt>
<wgt id='1126'> +2.8353616e+11 </wgt>
<wgt id='1127'> +2.8332251e+11 </wgt>
<wgt id='1128'> +2.8346892e+11 </wgt>
<wgt id='1129'> +2.8338236e+11 </wgt>
<wgt id='1130'> +2.8346047e+11 </wgt>
<wgt id='1131'> +2.8370330e+11 </wgt>
<wgt id='1132'> +2.8335036e+11 </wgt>
<wgt id='1133'> +2.8350706e+11 </wgt>
<wgt id='1134'> +2.8340905e+11 </wgt>
<wgt id='1135'> +2.8347077e+11 </wgt>
<wgt id='1136'> +2.8339352e+11 </wgt>
<wgt id='1137'> +2.8328290e+11 </wgt>
<wgt id='1138'> +2.8354456e+11 </wgt>
<wgt id='1139'> +2.8346925e+11 </wgt>
<wgt id='1140'> +2.8363970e+11 </wgt>
<wgt id='1141'> +2.8329917e+11 </wgt>
<wgt id='1142'> +2.8350232e+11 </wgt>
<wgt id='1143'> +2.8359758e+11 </wgt>
<wgt id='1144'> +2.8334367e+11 </wgt>
<wgt id='1145'> +2.8355534e+11 </wgt>
<wgt id='1146'> +2.8341306e+11 </wgt>
<wgt id='1147'> +2.8347793e+11 </wgt>
<wgt id='1148'> +2.8343000e+11 </wgt>
<wgt id='1149'> +2.8343000e+11 </wgt>
<wgt id='1150'> +2.9185969e+11 </wgt>
<wgt id='1151'> +2.8093439e+11 </wgt>
<wgt id='1152'> +2.8464875e+11 </wgt>
<wgt id='1153'> +2.8758049e+11 </wgt>
<wgt id='1154'> +2.8712815e+11 </wgt>
<wgt id='1155'> +2.8865270e+11 </wgt>
<wgt id='1156'> +2.7662593e+11 </wgt>
<wgt id='1157'> +2.7642434e+11 </wgt>
<wgt id='1158'> +2.7758050e+11 </wgt>
<wgt id='1159'> +2.9652232e+11 </wgt>
<wgt id='1160'> +2.8179811e+11 </wgt>
<wgt id='1161'> +2.8552155e+11 </wgt>
<wgt id='1162'> +2.7706464e+11 </wgt>
<wgt id='1163'> +2.8676385e+11 </wgt>
<wgt id='1164'> +2.6779394e+11 </wgt>
<wgt id='1165'> +2.7912462e+11 </wgt>
<wgt id='1166'> +2.8485262e+11 </wgt>
<wgt id='1167'> +2.7975566e+11 </wgt>
<wgt id='1168'> +2.7640348e+11 </wgt>
<wgt id='1169'> +2.7591496e+11 </wgt>
<wgt id='1170'> +2.7664975e+11 </wgt>
<wgt id='1171'> +2.7339134e+11 </wgt>
<wgt id='1172'> +2.7737725e+11 </wgt>
<wgt id='1173'> +2.8777473e+11 </wgt>
<wgt id='1174'> +2.7945370e+11 </wgt>
<wgt id='1175'> +2.7543596e+11 </wgt>
<wgt id='1176'> +2.8636371e+11 </wgt>
<wgt id='1177'> +2.7912103e+11 </wgt>
<wgt id='1178'> +2.8312086e+11 </wgt>
<wgt id='1179'> +2.8034433e+11 </wgt>
<wgt id='1180'> +2.8457434e+11 </wgt>
<wgt id='1181'> +2.7730189e+11 </wgt>
<wgt id='1182'> +2.8147681e+11 </wgt>
<wgt id='1183'> +2.9536594e+11 </wgt>
<wgt id='1184'> +2.7727063e+11 </wgt>
<wgt id='1185'> +2.8161060e+11 </wgt>
<wgt id='1186'> +2.7207239e+11 </wgt>
<wgt id='1187'> +2.8558633e+11 </wgt>
<wgt id='1188'> +2.7826967e+11 </wgt>
<wgt id='1189'> +2.8534003e+11 </wgt>
<wgt id='1190'> +2.8401295e+11 </wgt>
<wgt id='1191'> +2.9488144e+11 </wgt>
<wgt id='1192'> +2.9164330e+11 </wgt>
<wgt id='1193'> +2.9510585e+11 </wgt>
<wgt id='1194'> +2.8438609e+11 </wgt>
<wgt id='1195'> +2.8373284e+11 </wgt>
<wgt id='1196'> +2.9230138e+11 </wgt>
<wgt id='1197'> +2.9385342e+11 </wgt>
<wgt id='1198'> +2.7593393e+11 </wgt>
<wgt id='1199'> +2.8249711e+11 </wgt>
<wgt id='1200'> +2.8258194e+11 </wgt>
<wgt id='1201'> +2.7934775e+11 </wgt>
<wgt id='1202'> +2.8852896e+11 </wgt>
<wgt id='1203'> +2.7779153e+11 </wgt>
<wgt id='1204'> +2.8797368e+11 </wgt>
<wgt id='1205'> +2.8495953e+11 </wgt>
<wgt id='1206'> +2.7667007e+11 </wgt>
<wgt id='1207'> +2.9297742e+11 </wgt>
<wgt id='1208'> +2.7265778e+11 </wgt>
<wgt id='1209'> +2.7892964e+11 </wgt>
<wgt id='1210'> +2.8058173e+11 </wgt>
<wgt id='1211'> +2.8575463e+11 </wgt>
<wgt id='1212'> +2.8360271e+11 </wgt>
<wgt id='1213'> +2.9317362e+11 </wgt>
<wgt id='1214'> +2.7575901e+11 </wgt>
<wgt id='1215'> +2.9163890e+11 </wgt>
<wgt id='1216'> +2.8589389e+11 </wgt>
<wgt id='1217'> +2.7595611e+11 </wgt>
<wgt id='1218'> +2.8475901e+11 </wgt>
<wgt id='1219'> +2.9434392e+11 </wgt>
<wgt id='1220'> +2.7719212e+11 </wgt>
<wgt id='1221'> +2.7510915e+11 </wgt>
<wgt id='1222'> +2.8025073e+11 </wgt>
<wgt id='1223'> +2.7260832e+11 </wgt>
<wgt id='1224'> +2.8349403e+11 </wgt>
<wgt id='1225'> +2.8815782e+11 </wgt>
<wgt id='1226'> +2.9041143e+11 </wgt>
<wgt id='1227'> +2.7346175e+11 </wgt>
<wgt id='1228'> +2.8141272e+11 </wgt>
<wgt id='1229'> +3.0277182e+11 </wgt>
<wgt id='1230'> +2.9390874e+11 </wgt>
<wgt id='1231'> +2.7912462e+11 </wgt>
<wgt id='1232'> +2.8897470e+11 </wgt>
<wgt id='1233'> +2.7801618e+11 </wgt>
<wgt id='1234'> +2.7634596e+11 </wgt>
<wgt id='1235'> +3.0277794e+11 </wgt>
<wgt id='1236'> +2.7660221e+11 </wgt>
<wgt id='1237'> +2.8972594e+11 </wgt>
<wgt id='1238'> +2.8924723e+11 </wgt>
<wgt id='1239'> +2.9166405e+11 </wgt>
<wgt id='1240'> +2.8512267e+11 </wgt>
<wgt id='1241'> +2.8212794e+11 </wgt>
<wgt id='1242'> +2.8065931e+11 </wgt>
<wgt id='1243'> +2.8876133e+11 </wgt>
<wgt id='1244'> +2.8138700e+11 </wgt>
<wgt id='1245'> +2.8167733e+11 </wgt>
<wgt id='1246'> +3.0707968e+11 </wgt>
<wgt id='1247'> +2.8353727e+11 </wgt>
<wgt id='1248'> +2.7519265e+11 </wgt>
<wgt id='1249'> +2.7750732e+11 </wgt>
<wgt id='1250'> +2.9214337e+11 </wgt>
<wgt id='1251'> +2.9859993e+11 </wgt>
<wgt id='1252'> +2.8700301e+11 </wgt>
<wgt id='1253'> +2.8522028e+11 </wgt>
<wgt id='1254'> +2.8843652e+11 </wgt>
<wgt id='1255'> +2.9798067e+11 </wgt>
<wgt id='1256'> +2.9555621e+11 </wgt>
<wgt id='1257'> +2.8616138e+11 </wgt>
<wgt id='1258'> +2.9970815e+11 </wgt>
<wgt id='1259'> +2.9476736e+11 </wgt>
<wgt id='1260'> +3.2529633e+11 </wgt>
<wgt id='1261'> +3.1356503e+11 </wgt>
<wgt id='1262'> +2.8957495e+11 </wgt>
<wgt id='1263'> +2.9662363e+11 </wgt>
<wgt id='1264'> +2.9850659e+11 </wgt>
<wgt id='1265'> +2.9833626e+11 </wgt>
<wgt id='1266'> +2.9448163e+11 </wgt>
<wgt id='1267'> +3.1646210e+11 </wgt>
<wgt id='1268'> +2.9381116e+11 </wgt>
<wgt id='1269'> +2.8698918e+11 </wgt>
<wgt id='1270'> +2.9168732e+11 </wgt>
<wgt id='1271'> +2.7867609e+11 </wgt>
<wgt id='1272'> +2.9311718e+11 </wgt>
<wgt id='1273'> +2.9161621e+11 </wgt>
<wgt id='1274'> +2.8734871e+11 </wgt>
<wgt id='1275'> +2.9815173e+11 </wgt>
<wgt id='1276'> +2.9550880e+11 </wgt>
<wgt id='1277'> +2.9087007e+11 </wgt>
<wgt id='1278'> +2.8701096e+11 </wgt>
<wgt id='1279'> +2.8094636e+11 </wgt>
<wgt id='1280'> +2.9324172e+11 </wgt>
<wgt id='1281'> +2.8556306e+11 </wgt>
<wgt id='1282'> +2.9636634e+11 </wgt>
<wgt id='1283'> +2.9640643e+11 </wgt>
<wgt id='1284'> +3.1439115e+11 </wgt>
<wgt id='1285'> +3.0799360e+11 </wgt>
<wgt id='1286'> +3.2849835e+11 </wgt>
<wgt id='1287'> +3.0310195e+11 </wgt>
<wgt id='1288'> +3.2367876e+11 </wgt>
<wgt id='1289'> +3.1282261e+11 </wgt>
<wgt id='1290'> +3.1123729e+11 </wgt>
<wgt id='1291'> +2.7769869e+11 </wgt>
<wgt id='1292'> +2.9739719e+11 </wgt>
<wgt id='1293'> +3.0009862e+11 </wgt>
<wgt id='1294'> +3.1440669e+11 </wgt>
<wgt id='1295'> +2.9866363e+11 </wgt>
<wgt id='1296'> +3.1556687e+11 </wgt>
<wgt id='1297'> +2.9517868e+11 </wgt>
<wgt id='1298'> +2.8752697e+11 </wgt>
<wgt id='1299'> +2.9856691e+11 </wgt>
<wgt id='1300'> +2.8788379e+11 </wgt>
<wgt id='1301'> +2.8057261e+11 </wgt>
<wgt id='1302'> +2.7608303e+11 </wgt>
<wgt id='1303'> +2.9831946e+11 </wgt>
<wgt id='1304'> +3.0644889e+11 </wgt>
<wgt id='1305'> +2.9813690e+11 </wgt>
<wgt id='1306'> +3.0501906e+11 </wgt>
<wgt id='1307'> +3.0297307e+11 </wgt>
<wgt id='1308'> +3.2528318e+11 </wgt>
<wgt id='1309'> +2.9572181e+11 </wgt>
<wgt id='1310'> +3.0199001e+11 </wgt>
<wgt id='1311'> +3.0745672e+11 </wgt>
<wgt id='1312'> +2.9922779e+11 </wgt>
<wgt id='1313'> +2.9686309e+11 </wgt>
<wgt id='1314'> +3.0365470e+11 </wgt>
<wgt id='1315'> +2.8479973e+11 </wgt>
<wgt id='1316'> +2.9839235e+11 </wgt>
<wgt id='1317'> +3.0135369e+11 </wgt>
<wgt id='1318'> +2.8648816e+11 </wgt>
<wgt id='1319'> +3.0702761e+11 </wgt>
<wgt id='1320'> +3.0910112e+11 </wgt>
<wgt id='1321'> +2.9365676e+11 </wgt>
<wgt id='1322'> +2.9770232e+11 </wgt>
<wgt id='1323'> +2.9816985e+11 </wgt>
<wgt id='1324'> +3.0118005e+11 </wgt>
<wgt id='1325'> +3.1075855e+11 </wgt>
<wgt id='1326'> +3.0287946e+11 </wgt>
<wgt id='1327'> +2.9393208e+11 </wgt>
<wgt id='1328'> +3.0209424e+11 </wgt>
<wgt id='1329'> +2.9755729e+11 </wgt>
<wgt id='1330'> +2.9033750e+11 </wgt>
<wgt id='1331'> +3.1913011e+11 </wgt>
<wgt id='1332'> +2.8610606e+11 </wgt>
<wgt id='1333'> +3.0043652e+11 </wgt>
<wgt id='1334'> +3.1370398e+11 </wgt>
<wgt id='1335'> +2.9234217e+11 </wgt>
<wgt id='1336'> +3.0249618e+11 </wgt>
<wgt id='1337'> +3.0827649e+11 </wgt>
<wgt id='1338'> +2.8955855e+11 </wgt>
<wgt id='1339'> +3.1998521e+11 </wgt>
<wgt id='1340'> +3.0151377e+11 </wgt>
<wgt id='1341'> +3.0507185e+11 </wgt>
<wgt id='1342'> +3.1498190e+11 </wgt>
<wgt id='1343'> +3.0997587e+11 </wgt>
<wgt id='1344'> +3.0368723e+11 </wgt>
<wgt id='1345'> +2.7934923e+11 </wgt>
<wgt id='1346'> +2.9942845e+11 </wgt>
<wgt id='1347'> +2.8671942e+11 </wgt>
<wgt id='1348'> +2.8778194e+11 </wgt>
<wgt id='1349'> +2.8944341e+11 </wgt>
<wgt id='1350'> +3.0042711e+11 </wgt>
<wgt id='1351'> +2.9638402e+11 </wgt>
<wgt id='1352'> +3.0036058e+11 </wgt>
<wgt id='1353'> +2.9703869e+11 </wgt>
<wgt id='1354'> +3.0674755e+11 </wgt>
<wgt id='1355'> +2.7568053e+11 </wgt>
<wgt id='1356'> +2.7843154e+11 </wgt>
<wgt id='1357'> +2.7652546e+11 </wgt>
<wgt id='1358'> +2.7312439e+11 </wgt>
<wgt id='1359'> +2.7640994e+11 </wgt>
<wgt id='1360'> +2.6897225e+11 </wgt>
<wgt id='1361'> +2.7567828e+11 </wgt>
<wgt id='1362'> +2.7772940e+11 </wgt>
<wgt id='1363'> +2.6965243e+11 </wgt>
<wgt id='1364'> +2.8185544e+11 </wgt>
<wgt id='1365'> +2.7335629e+11 </wgt>
<wgt id='1366'> +2.7565835e+11 </wgt>
<wgt id='1367'> +2.7651768e+11 </wgt>
<wgt id='1368'> +2.7573320e+11 </wgt>
<wgt id='1369'> +2.7986547e+11 </wgt>
<wgt id='1370'> +2.7381346e+11 </wgt>
<wgt id='1371'> +2.7350691e+11 </wgt>
<wgt id='1372'> +2.8012119e+11 </wgt>
<wgt id='1373'> +2.7930012e+11 </wgt>
<wgt id='1374'> +2.6757818e+11 </wgt>
<wgt id='1375'> +2.7465905e+11 </wgt>
<wgt id='1376'> +2.7650662e+11 </wgt>
<wgt id='1377'> +2.7565552e+11 </wgt>
<wgt id='1378'> +2.7160486e+11 </wgt>
<wgt id='1379'> +2.7414826e+11 </wgt>
<wgt id='1380'> +2.7405274e+11 </wgt>
<wgt id='1381'> +2.8098627e+11 </wgt>
<wgt id='1382'> +2.7529147e+11 </wgt>
<wgt id='1383'> +2.7555935e+11 </wgt>
<wgt id='1384'> +2.7398286e+11 </wgt>
<wgt id='1385'> +2.7412423e+11 </wgt>
<wgt id='1386'> +2.7752490e+11 </wgt>
<wgt id='1387'> +2.7465191e+11 </wgt>
<wgt id='1388'> +2.7192345e+11 </wgt>
<wgt id='1389'> +2.7403588e+11 </wgt>
<wgt id='1390'> +2.7473973e+11 </wgt>
<wgt id='1391'> +2.7342102e+11 </wgt>
<wgt id='1392'> +2.7351350e+11 </wgt>
<wgt id='1393'> +2.7375113e+11 </wgt>
<wgt id='1394'> +2.7340851e+11 </wgt>
<wgt id='1395'> +2.7140417e+11 </wgt>
<wgt id='1396'> +2.7669679e+11 </wgt>
<wgt id='1397'> +2.7630343e+11 </wgt>
<wgt id='1398'> +2.7634263e+11 </wgt>
<wgt id='1399'> +2.7136410e+11 </wgt>
<wgt id='1400'> +2.7267986e+11 </wgt>
<wgt id='1401'> +2.7427773e+11 </wgt>
<wgt id='1402'> +2.7891664e+11 </wgt>
<wgt id='1403'> +2.7891045e+11 </wgt>
<wgt id='1404'> +2.7364159e+11 </wgt>
<wgt id='1405'> +2.8179758e+11 </wgt>
<wgt id='1406'> +2.7549840e+11 </wgt>
<wgt id='1407'> +2.7635832e+11 </wgt>
<wgt id='1408'> +2.7891402e+11 </wgt>
<wgt id='1409'> +2.7352987e+11 </wgt>
<wgt id='1410'> +2.7318060e+11 </wgt>
<wgt id='1411'> +2.7536582e+11 </wgt>
<wgt id='1412'> +2.7450653e+11 </wgt>
<wgt id='1413'> +2.7261449e+11 </wgt>
<wgt id='1414'> +2.7744225e+11 </wgt>
<wgt id='1415'> +2.8138309e+11 </wgt>
<wgt id='1416'> +2.7879086e+11 </wgt>
<wgt id='1417'> +2.6909885e+11 </wgt>
<wgt id='1418'> +2.7728751e+11 </wgt>
<wgt id='1419'> +2.7924504e+11 </wgt>
<wgt id='1420'> +2.7488731e+11 </wgt>
<wgt id='1421'> +2.8173760e+11 </wgt>
<wgt id='1422'> +2.6814506e+11 </wgt>
<wgt id='1423'> +2.8091830e+11 </wgt>
<wgt id='1424'> +2.7672184e+11 </wgt>
<wgt id='1425'> +2.7592334e+11 </wgt>
<wgt id='1426'> +2.7916249e+11 </wgt>
<wgt id='1427'> +2.7562873e+11 </wgt>
<wgt id='1428'> +2.7551511e+11 </wgt>
<wgt id='1429'> +2.7169119e+11 </wgt>
<wgt id='1430'> +2.7097426e+11 </wgt>
<wgt id='1431'> +2.7093755e+11 </wgt>
<wgt id='1432'> +2.7751556e+11 </wgt>
<wgt id='1433'> +2.7623240e+11 </wgt>
<wgt id='1434'> +2.8243117e+11 </wgt>
<wgt id='1435'> +2.7479911e+11 </wgt>
<wgt id='1436'> +2.7980637e+11 </wgt>
<wgt id='1437'> +2.7827318e+11 </wgt>
<wgt id='1438'> +2.7377150e+11 </wgt>
<wgt id='1439'> +2.7651448e+11 </wgt>
<wgt id='1440'> +2.8020727e+11 </wgt>
<wgt id='1441'> +2.7548922e+11 </wgt>
<wgt id='1442'> +2.8322591e+11 </wgt>
<wgt id='1443'> +2.7383504e+11 </wgt>
<wgt id='1444'> +2.7413336e+11 </wgt>
<wgt id='1445'> +2.7857456e+11 </wgt>
<wgt id='1446'> +2.7803274e+11 </wgt>
<wgt id='1447'> +2.7173972e+11 </wgt>
<wgt id='1448'> +2.7804387e+11 </wgt>
<wgt id='1449'> +2.7710194e+11 </wgt>
<wgt id='1450'> +2.7385663e+11 </wgt>
<wgt id='1451'> +2.7695083e+11 </wgt>
<wgt id='1452'> +2.7881485e+11 </wgt>
<wgt id='1453'> +2.8055574e+11 </wgt>
<wgt id='1454'> +2.6900594e+11 </wgt>
<wgt id='1455'> +2.7490697e+11 </wgt>
<wgt id='1456'> +2.7491016e+11 </wgt>
<wgt id='1457'> +2.7446290e+11 </wgt>
<wgt id='1458'> +2.7766295e+11 </wgt>
<wgt id='1459'> +3.0508690e+11 </wgt>
<wgt id='1460'> +3.0040659e+11 </wgt>
<wgt id='1461'> +3.4782116e+11 </wgt>
<wgt id='1462'> +2.9974120e+11 </wgt>
<wgt id='1463'> +2.9999060e+11 </wgt>
<wgt id='1464'> +2.9942138e+11 </wgt>
<wgt id='1465'> +2.9980277e+11 </wgt>
<wgt id='1466'> +2.9968497e+11 </wgt>
<wgt id='1467'> +2.9990331e+11 </wgt>
<wgt id='1468'> +2.9947526e+11 </wgt>
<wgt id='1469'> +2.9929094e+11 </wgt>
<wgt id='1470'> +3.0010692e+11 </wgt>
<wgt id='1471'> +3.0021929e+11 </wgt>
<wgt id='1472'> +2.9924879e+11 </wgt>
<wgt id='1473'> +3.0089306e+11 </wgt>
<wgt id='1474'> +2.9863486e+11 </wgt>
<wgt id='1475'> +3.0084038e+11 </wgt>
<wgt id='1476'> +2.9896191e+11 </wgt>
<wgt id='1477'> +2.9916804e+11 </wgt>
<wgt id='1478'> +3.0108008e+11 </wgt>
<wgt id='1479'> +2.9916983e+11 </wgt>
<wgt id='1480'> +3.0014015e+11 </wgt>
<wgt id='1481'> +2.9931866e+11 </wgt>
<wgt id='1482'> +3.0031103e+11 </wgt>
<wgt id='1483'> +2.9983888e+11 </wgt>
<wgt id='1484'> +2.9960252e+11 </wgt>
<wgt id='1485'> +2.9994279e+11 </wgt>
<wgt id='1486'> +2.9925578e+11 </wgt>
<wgt id='1487'> +2.9999101e+11 </wgt>
<wgt id='1488'> +2.9942707e+11 </wgt>
<wgt id='1489'> +2.9938940e+11 </wgt>
<wgt id='1490'> +3.0069493e+11 </wgt>
<wgt id='1491'> +3.0466383e+11 </wgt>
<wgt id='1492'> +2.9699369e+11 </wgt>
<wgt id='1493'> +2.9624006e+11 </wgt>
<wgt id='1494'> +3.1071395e+11 </wgt>
<wgt id='1495'> +2.9910488e+11 </wgt>
<wgt id='1496'> +3.0042372e+11 </wgt>
<wgt id='1497'> +2.9994014e+11 </wgt>
<wgt id='1498'> +2.9946932e+11 </wgt>
<wgt id='1499'> +3.0161139e+11 </wgt>
<wgt id='1500'> +2.9871809e+11 </wgt>
<wgt id='1501'> +3.0020594e+11 </wgt>
<wgt id='1502'> +2.9850946e+11 </wgt>
<wgt id='1503'> +2.9660077e+11 </wgt>
<wgt id='1504'> +3.0307407e+11 </wgt>
<wgt id='1505'> +3.0076659e+11 </wgt>
<wgt id='1506'> +2.9875612e+11 </wgt>
<wgt id='1507'> +3.0105679e+11 </wgt>
<wgt id='1508'> +2.9898180e+11 </wgt>
<wgt id='1509'> +3.0031617e+11 </wgt>
<wgt id='1510'> +2.9727362e+11 </wgt>
<wgt id='1511'> +3.0085086e+11 </wgt>
<wgt id='1512'> +2.9942738e+11 </wgt>
<wgt id='1513'> +2.9966186e+11 </wgt>
<wgt id='1514'> +2.9981382e+11 </wgt>
<wgt id='1515'> +3.0215580e+11 </wgt>
<wgt id='1516'> +3.0019753e+11 </wgt>
<wgt id='1517'> +2.9936821e+11 </wgt>
<wgt id='1518'> +3.0004870e+11 </wgt>
<wgt id='1519'> +2.9811267e+11 </wgt>
<wgt id='1520'> +3.0090028e+11 </wgt>
<wgt id='1521'> +2.9897343e+11 </wgt>
<wgt id='1522'> +3.0020199e+11 </wgt>
<wgt id='1523'> +3.0110592e+11 </wgt>
<wgt id='1524'> +3.0109796e+11 </wgt>
<wgt id='1525'> +3.0097839e+11 </wgt>
<wgt id='1526'> +3.0052284e+11 </wgt>
<wgt id='1527'> +2.9974120e+11 </wgt>
<wgt id='1528'> +2.9956009e+11 </wgt>
<wgt id='1529'> +2.9939546e+11 </wgt>
<wgt id='1530'> +2.9563882e+11 </wgt>
<wgt id='1531'> +2.9644402e+11 </wgt>
<wgt id='1532'> +2.9405634e+11 </wgt>
<wgt id='1533'> +2.9201598e+11 </wgt>
<wgt id='1534'> +2.9482633e+11 </wgt>
<wgt id='1535'> +2.9891585e+11 </wgt>
<wgt id='1536'> +2.9344578e+11 </wgt>
<wgt id='1537'> +2.9634091e+11 </wgt>
<wgt id='1538'> +2.9328103e+11 </wgt>
<wgt id='1539'> +3.0263894e+11 </wgt>
<wgt id='1540'> +2.9561231e+11 </wgt>
<wgt id='1541'> +2.9662552e+11 </wgt>
<wgt id='1542'> +2.9635973e+11 </wgt>
<wgt id='1543'> +2.9750376e+11 </wgt>
<wgt id='1544'> +2.9453878e+11 </wgt>
<wgt id='1545'> +2.9448137e+11 </wgt>
<wgt id='1546'> +2.9253694e+11 </wgt>
<wgt id='1547'> +2.9874180e+11 </wgt>
<wgt id='1548'> +2.9444917e+11 </wgt>
<wgt id='1549'> +2.9308637e+11 </wgt>
<wgt id='1550'> +2.9708198e+11 </wgt>
<wgt id='1551'> +2.9708042e+11 </wgt>
<wgt id='1552'> +2.9578215e+11 </wgt>
<wgt id='1553'> +2.9829313e+11 </wgt>
<wgt id='1554'> +2.9628867e+11 </wgt>
<wgt id='1555'> +2.9705139e+11 </wgt>
<wgt id='1556'> +2.9881093e+11 </wgt>
<wgt id='1557'> +2.9563536e+11 </wgt>
<wgt id='1558'> +2.9643313e+11 </wgt>
<wgt id='1559'> +2.9440529e+11 </wgt>
<wgt id='1560'> +2.9522082e+11 </wgt>
<wgt id='1561'> +2.9255378e+11 </wgt>
<wgt id='1562'> +2.9501681e+11 </wgt>
<wgt id='1563'> +2.9638172e+11 </wgt>
<wgt id='1564'> +2.9605003e+11 </wgt>
<wgt id='1565'> +2.9861995e+11 </wgt>
<wgt id='1566'> +2.9670731e+11 </wgt>
<wgt id='1567'> +2.9999649e+11 </wgt>
<wgt id='1568'> +2.9638606e+11 </wgt>
<wgt id='1569'> +2.9608248e+11 </wgt>
<wgt id='1570'> +2.9863565e+11 </wgt>
<wgt id='1571'> +2.9622223e+11 </wgt>
<wgt id='1572'> +2.9818799e+11 </wgt>
<wgt id='1573'> +2.9929352e+11 </wgt>
<wgt id='1574'> +2.6666888e+11 </wgt>
<wgt id='1575'> +2.6674154e+11 </wgt>
<wgt id='1576'> +2.6660098e+11 </wgt>
<wgt id='1577'> +2.6668725e+11 </wgt>
<wgt id='1578'> +2.6728200e+11 </wgt>
<wgt id='1579'> +2.6753598e+11 </wgt>
<wgt id='1580'> +2.6730844e+11 </wgt>
<wgt id='1581'> +2.6603939e+11 </wgt>
<wgt id='1582'> +2.6573111e+11 </wgt>
<wgt id='1583'> +2.6622344e+11 </wgt>
<wgt id='1584'> +2.6725091e+11 </wgt>
<wgt id='1585'> +2.6685830e+11 </wgt>
<wgt id='1586'> +2.6564205e+11 </wgt>
<wgt id='1587'> +2.6589973e+11 </wgt>
<wgt id='1588'> +2.6539456e+11 </wgt>
<wgt id='1589'> +2.6641616e+11 </wgt>
<wgt id='1590'> +2.6648127e+11 </wgt>
<wgt id='1591'> +2.6673697e+11 </wgt>
<wgt id='1592'> +2.6563323e+11 </wgt>
<wgt id='1593'> +2.6579981e+11 </wgt>
<wgt id='1594'> +2.6748459e+11 </wgt>
<wgt id='1595'> +2.6442958e+11 </wgt>
<wgt id='1596'> +2.7025881e+11 </wgt>
<wgt id='1597'> +2.6840712e+11 </wgt>
<wgt id='1598'> +2.6863256e+11 </wgt>
<wgt id='1599'> +2.6391991e+11 </wgt>
<wgt id='1600'> +2.7109955e+11 </wgt>
<wgt id='1601'> +2.6881376e+11 </wgt>
<wgt id='1602'> +2.6672640e+11 </wgt>
<wgt id='1603'> +2.7714979e+11 </wgt>
<wgt id='1604'> +2.6669194e+11 </wgt>
</rwgt>
</event>
<event>
 9      1 +2.8343000e+11 1.39999200e+03 7.81738600e-03 7.88881600e-02
       21 -1    0    0  504  503 +0.0000000000e+00 +0.0000000000e+00 +1.8411768073e+03 1.8411768073e+03 0.0000000000e+00 0.0000e+00 1.0000e+00
       21 -1    0    0  503  504 -0.0000000000e+00 -0.0000000000e+00 -2.6613112674e+02 2.6613112674e+02 0.0000000000e+00 0.0000e+00 1.0000e+00
       45  2    1    2    0    0 +0.0000000000e+00 +0.0000000000e+00 +1.5750456806e+03 2.1073079341e+03 1.3999920832e+03 0.0000e+00 0.0000e+00
       25  2    3    3    0    0 +5.9472676666e+02 -1.4789036592e+02 +1.2726049325e+03 1.4180029818e+03 1.2505060973e+02 0.0000e+00 0.0000e+00
       35  2    3    3    0    0 -5.9472676666e+02 +1.4789036592e+02 +3.0244074812e+02 6.8930495225e+02 8.9996798605e+01 0.0000e+00 0.0000e+00
        5  1    5    5  501    0 -5.5843247142e+02 +1.1568000323e+02 +2.8515079761e+02 6.3761855640e+02 4.2140000000e+00 0.0000e+00 -1.0000e+00
       -5  1    5    5    0  501 -3.6294295235e+01 +3.2210362696e+01 +1.7289950505e+01 5.1686395851e+01 4.2140000000e+00 0.0000e+00 -1.0000e+00
        5  1    4    4  502    0 +1.0494484688e+02 +2.1488053133e+01 +2.1664601093e+02 2.4171969130e+02 4.2140000000e+00 0.0000e+00 -1.0000e+00
       -5  1    4    4    0  502 +4.8978191978e+02 -1.6937841906e+02 +1.0559589215e+03 1.1762832905e+03 4.2140000000e+00 0.0000e+00 -1.0000e+00
<mgrwt>
<rscale>  0 0.13999921E+04</rscale>
<asrwt>0</asrwt>
<pdfrwt beam="1">  1       21 0.28325796E+00 0.13999921E+04</pdfrwt>
<pdfrwt beam="2">  1       21 0.40943251E-01 0.13999921E+04</pdfrwt>
<totfact> 0.14441751E+02</totfact>
</mgrwt>
<rwgt>
<wgt id='1001'> +2.8343000e+11 </wgt>
<wgt id='1002'> +2.8929679e+11 </wgt>
<wgt id='1003'> +2.8929256e+11 </wgt>
<wgt id='1004'> +3.2800631e+11 </wgt>
<wgt id='1005'> +2.8343000e+11 </wgt>
<wgt id='1006'> +2.8343000e+11 </wgt>
<wgt id='1007'> +2.8929679e+11 </wgt>
<wgt id='1008'> +2.8929256e+11 </wgt>
<wgt id='1009'> +3.2800631e+11 </wgt>
<wgt id='1010'> +2.8343000e+11 </wgt>
<wgt id='1011'> +2.8343000e+11 </wgt>
<wgt id='1012'> +2.8929679e+11 </wgt>
<wgt id='1013'> +2.8929256e+11 </wgt>
<wgt id='1014'> +3.2800631e+11 </wgt>
<wgt id='1015'> +2.8343000e+11 </wgt>
<wgt id='1016'> +2.5224216e+11 </wgt>
<wgt id='1017'> +2.5716131e+11 </wgt>
<wgt id='1018'> +2.5715776e+11 </wgt>
<wgt id='1019'> +2.8929256e+11 </wgt>
<wgt id='1020'> +2.5224216e+11 </wgt>
<wgt id='1021'> +2.5224216e+11 </wgt>
<wgt id='1022'> +2.5716131e+11 </wgt>
<wgt id='1023'> +2.5715776e+11 </wgt>
<wgt id='1024'> +2.8929256e+11 </wgt>
<wgt id='1025'> +2.5224216e+11 </wgt>
<wgt id='1026'> +2.5224216e+11 </wgt>
<wgt id='1027'> +2.5716131e+11 </wgt>
<wgt id='1028'> +2.5715776e+11 </wgt>
<wgt id='1029'> +2.8929256e+11 </wgt>
<wgt id='1030'> +2.5224216e+11 </wgt>
<wgt id='1031'> +3.2091016e+11 </wgt>
<wgt id='1032'> +3.2801143e+11 </wgt>
<wgt id='1033'> +3.2800631e+11 </wgt>
<wgt id='1034'> +3.7505111e+11 </wgt>
<wgt id='1035'> +3.2091016e+11 </wgt>
<wgt id='1036'> +3.2091016e+11 </wgt>
<wgt id='1037'> +3.2801143e+11 </wgt>
<wgt id='1038'> +3.2800631e+11 </wgt>
<wgt id='1039'> +3.7505111e+11 </wgt>
<wgt id='1040'> +3.2091016e+11 </wgt>
<wgt id='1041'> +3.2091016e+11 </wgt>
<wgt id='1042'> +3.2801143e+11 </wgt>
<wgt id='1043'> +3.2800631e+11 </wgt>
<wgt id='1044'> +3.7505111e+11 </wgt>
<wgt id='1045'> +3.2091016e+11 </wgt>
<wgt id='1046'> +2.8343000e+11 </wgt>
<wgt id='1047'> +2.8343000e+11 </wgt>
<wgt id='1048'> +2.8343000e+11 </wgt>
<wgt id='1049'> +2.8329977e+11 </wgt>
<wgt id='1050'> +2.8272093e+11 </wgt>
<wgt id='1051'> +2.8350914e+11 </wgt>
<wgt id='1052'> +2.8362204e+11 </wgt>
<wgt id='1053'> +2.8166214e+11 </wgt>
<wgt id='1054'> +2.8496376e+11 </wgt>
<wgt id='1055'> +2.8199150e+11 </wgt>
<wgt id='1056'> +2.8162277e+11 </wgt>
<wgt id='1057'> +2.8229408e+11 </wgt>
<wgt id='1058'> +2.8300979e+11 </wgt>
<wgt id='1059'> +2.8572524e+11 </wgt>
<wgt id='1060'> +2.8311460e+11 </wgt>
<wgt id='1061'> +2.8454728e+11 </wgt>
<wgt id='1062'> +2.8474966e+11 </wgt>
<wgt id='1063'> +2.8469600e+11 </wgt>
<wgt id='1064'> +2.8472081e+11 </wgt>
<wgt id='1065'> +2.8536541e+11 </wgt>
<wgt id='1066'> +2.8221611e+11 </wgt>
<wgt id='1067'> +2.8196249e+11 </wgt>
<wgt id='1068'> +2.8411003e+11 </wgt>
<wgt id='1069'> +2.8246451e+11 </wgt>
<wgt id='1070'> +2.8327495e+11 </wgt>
<wgt id='1071'> +2.8432183e+11 </wgt>
<wgt id='1072'> +2.8269927e+11 </wgt>
<wgt id='1073'> +2.8277153e+11 </wgt>
<wgt id='1074'> +2.8280806e+11 </wgt>
<wgt id='1075'> +2.8177456e+11 </wgt>
<wgt id='1076'> +2.8346826e+11 </wgt>
<wgt id='1077'> +2.8081967e+11 </wgt>
<wgt id='1078'> +2.8253787e+11 </wgt>
<wgt id='1079'> +2.8266962e+11 </wgt>
<wgt id='1080'> +2.8272776e+11 </wgt>
<wgt id='1081'> +2.8303041e+11 </wgt>
<wgt id='1082'> +2.8351312e+11 </wgt>
<wgt id='1083'> +2.8420276e+11 </wgt>
<wgt id='1084'> +2.8385184e+11 </wgt>
<wgt id='1085'> +2.8196694e+11 </wgt>
<wgt id='1086'> +2.8523868e+11 </wgt>
<wgt id='1087'> +2.8397149e+11 </wgt>
<wgt id='1088'> +2.8273357e+11 </wgt>
<wgt id='1089'> +2.8266530e+11 </wgt>
<wgt id='1090'> +2.8425928e+11 </wgt>
<wgt id='1091'> +2.8384962e+11 </wgt>
<wgt id='1092'> +2.8341029e+11 </wgt>
<wgt id='1093'> +2.8326264e+11 </wgt>
<wgt id='1094'> +2.8171482e+11 </wgt>
<wgt id='1095'> +2.8407424e+11 </wgt>
<wgt id='1096'> +2.8351837e+11 </wgt>
<wgt id='1097'> +2.8247307e+11 </wgt>
<wgt id='1098'> +2.8307633e+11 </wgt>
<wgt id='1099'> +2.8340626e+11 </wgt>
<wgt id='1100'> +2.8379734e+11 </wgt>
<wgt id='1101'> +2.8340311e+11 </wgt>
<wgt id='1102'> +2.8331231e+11 </wgt>
<wgt id='1103'> +2.8195025e+11 </wgt>
<wgt id='1104'> +2.8372543e+11 </wgt>
<wgt id='1105'> +2.8353954e+11 </wgt>
<wgt id='1106'> +2.8397500e+11 </wgt>
<wgt id='1107'> +2.8395456e+11 </wgt>
<wgt id='1108'> +2.8310899e+11 </wgt>
<wgt id='1109'> +2.8357731e+11 </wgt>
<wgt id='1110'> +2.8343952e+11 </wgt>
<wgt id='1111'> +2.8428298e+11 </wgt>
<wgt id='1112'> +2.8306665e+11 </wgt>
<wgt id='1113'> +2.8376887e+11 </wgt>
<wgt id='1114'> +2.8308739e+11 </wgt>
<wgt id='1115'> +2.8242541e+11 </wgt>
<wgt id='1116'> +2.8460449e+11 </wgt>
<wgt id='1117'> +2.8325093e+11 </wgt>
<wgt id='1118'> +2.8413923e+11 </wgt>
<wgt id='1119'> +2.8262504e+11 </wgt>
<wgt id='1120'> +2.8254439e+11 </wgt>
<wgt id='1121'> +2.8339182e+11 </wgt>
<wgt id='1122'> +2.8269633e+11 </wgt>
<wgt id='1123'> +2.8334653e+11 </wgt>
<wgt id='1124'> +2.8369933e+11 </wgt>
<wgt id='1125'> +2.8364268e+11 </wgt>
<wgt id='1126'> +2.8359249e+11 </wgt>
<wgt id='1127'> +2.8337302e+11 </wgt>
<wgt id='1128'> +2.8328041e+11 </wgt>
<wgt id='1129'> +2.8305637e+11 </wgt>
<wgt id='1130'> +2.8346301e+11 </wgt>
<wgt id='1131'> +2.8437840e+11 </wgt>
<wgt id='1132'> +2.8320262e+11 </wgt>
<wgt id='1133'> +2.8370258e+11 </wgt>
<wgt id='1134'> +2.8330289e+11 </wgt>
<wgt id='1135'> +2.8350299e+11 </wgt>
<wgt id='1136'> +2.8316164e+11 </wgt>
<wgt id='1137'> +2.8303808e+11 </wgt>
<wgt id='1138'> +2.8362461e+11 </wgt>
<wgt id='1139'> +2.8372967e+11 </wgt>
<wgt id='1140'> +2.8382228e+11 </wgt>
<wgt id='1141'> +2.8299257e+11 </wgt>
<wgt id='1142'> +2.8346190e+11 </wgt>
<wgt id='1143'> +2.8375397e+11 </wgt>
<wgt id='1144'> +2.8333144e+11 </wgt>
<wgt id='1145'> +2.8367391e+11 </wgt>
<wgt id='1146'> +2.8362873e+11 </wgt>
<wgt id='1147'> +2.8353022e+11 </wgt>
<wgt id='1148'> +2.8343000e+11 </wgt>
<wgt id='1149'> +2.8343000e+11 </wgt>
<wgt id='1150'> +2.8449983e+11 </wgt>
<wgt id='1151'> +2.7812077e+11 </wgt>
<wgt id='1152'> +2.7876420e+11 </wgt>
<wgt id='1153'> +2.8531335e+11 </wgt>
<wgt id='1154'> +2.7234696e+11 </wgt>
<wgt id='1155'> +3.0071841e+11 </wgt>
<wgt id='1156'> +2.8625144e+11 </wgt>
<wgt id='1157'> +2.8115632e+11 </wgt>
<wgt id='1158'> +2.7921213e+11 </wgt>
<wgt id='1159'> +2.9059433e+11 </wgt>
<wgt id='1160'> +2.7397431e+11 </wgt>
<wgt id='1161'> +2.9961845e+11 </wgt>
<wgt id='1162'> +2.8383254e+11 </wgt>
<wgt id='1163'> +2.8786676e+11 </wgt>
<wgt id='1164'> +2.6965399e+11 </wgt>
<wgt id='1165'> +2.7356117e+11 </wgt>
<wgt id='1166'> +2.8295162e+11 </wgt>
<wgt id='1167'> +2.7999889e+11 </wgt>
<wgt id='1168'> +2.6811762e+11 </wgt>
<wgt id='1169'> +2.7301118e+11 </wgt>
<wgt id='1170'> +2.8320193e+11 </wgt>
<wgt id='1171'> +2.7360651e+11 </wgt>
<wgt id='1172'> +2.6772026e+11 </wgt>
<wgt id='1173'> +2.8899948e+11 </wgt>
<wgt id='1174'> +2.8033894e+11 </wgt>
<wgt id='1175'> +2.7734524e+11 </wgt>
<wgt id='1176'> +2.8938001e+11 </wgt>
<wgt id='1177'> +2.8764643e+11 </wgt>
<wgt id='1178'> +2.8496232e+11 </wgt>
<wgt id='1179'> +2.9574074e+11 </wgt>
<wgt id='1180'> +2.8480553e+11 </wgt>
<wgt id='1181'> +2.8369948e+11 </wgt>
<wgt id='1182'> +2.8388316e+11 </wgt>
<wgt id='1183'> +2.9198193e+11 </wgt>
<wgt id='1184'> +2.6587513e+11 </wgt>
<wgt id='1185'> +2.9146466e+11 </wgt>
<wgt id='1186'> +2.7642438e+11 </wgt>
<wgt id='1187'> +2.9393091e+11 </wgt>
<wgt id='1188'> +2.9630474e+11 </wgt>
<wgt id='1189'> +2.8900982e+11 </wgt>
<wgt id='1190'> +2.8296606e+11 </wgt>
<wgt id='1191'> +2.9953659e+11 </wgt>
<wgt id='1192'> +2.8696091e+11 </wgt>
<wgt id='1193'> +2.8705313e+11 </wgt>
<wgt id='1194'> +2.7250159e+11 </wgt>
<wgt id='1195'> +2.9283963e+11 </wgt>
<wgt id='1196'> +2.8326607e+11 </wgt>
<wgt id='1197'> +2.9066881e+11 </wgt>
<wgt id='1198'> +2.7974198e+11 </wgt>
<wgt id='1199'> +2.8392596e+11 </wgt>
<wgt id='1200'> +2.9032765e+11 </wgt>
<wgt id='1201'> +2.8981719e+11 </wgt>
<wgt id='1202'> +2.7964596e+11 </wgt>
<wgt id='1203'> +2.8917116e+11 </wgt>
<wgt id='1204'> +2.7474639e+11 </wgt>
<wgt id='1205'> +2.9188658e+11 </wgt>
<wgt id='1206'> +2.7815020e+11 </wgt>
<wgt id='1207'> +2.9652385e+11 </wgt>
<wgt id='1208'> +2.7799333e+11 </wgt>
<wgt id='1209'> +2.8237972e+11 </wgt>
<wgt id='1210'> +2.8352707e+11 </wgt>
<wgt id='1211'> +2.8357454e+11 </wgt>
<wgt id='1212'> +2.7576056e+11 </wgt>
<wgt id='1213'> +2.7998451e+11 </wgt>
<wgt id='1214'> +2.7969375e+11 </wgt>
<wgt id='1215'> +2.8736661e+11 </wgt>
<wgt id='1216'> +2.7471753e+11 </wgt>
<wgt id='1217'> +2.8599484e+11 </wgt>
<wgt id='1218'> +2.8037462e+11 </wgt>
<wgt id='1219'> +2.8739069e+11 </wgt>
<wgt id='1220'> +2.7815415e+11 </wgt>
<wgt id='1221'> +2.7008931e+11 </wgt>
<wgt id='1222'> +2.7881787e+11 </wgt>
<wgt id='1223'> +2.7504949e+11 </wgt>
<wgt id='1224'> +2.8080286e+11 </wgt>
<wgt id='1225'> +2.7860890e+11 </wgt>
<wgt id='1226'> +2.8411233e+11 </wgt>
<wgt id='1227'> +2.7084310e+11 </wgt>
<wgt id='1228'> +2.7579438e+11 </wgt>
<wgt id='1229'> +2.9591432e+11 </wgt>
<wgt id='1230'> +2.8549371e+11 </wgt>
<wgt id='1231'> +2.7356117e+11 </wgt>
<wgt id='1232'> +2.9109267e+11 </wgt>
<wgt id='1233'> +2.7959314e+11 </wgt>
<wgt id='1234'> +2.8335613e+11 </wgt>
<wgt id='1235'> +3.0563564e+11 </wgt>
<wgt id='1236'> +2.8668696e+11 </wgt>
<wgt id='1237'> +2.9520020e+11 </wgt>
<wgt id='1238'> +2.9917741e+11 </wgt>
<wgt id='1239'> +2.9259527e+11 </wgt>
<wgt id='1240'> +2.7742537e+11 </wgt>
<wgt id='1241'> +2.8877153e+11 </wgt>
<wgt id='1242'> +2.8329869e+11 </wgt>
<wgt id='1243'> +2.7814117e+11 </wgt>
<wgt id='1244'> +2.9071035e+11 </wgt>
<wgt id='1245'> +2.6700167e+11 </wgt>
<wgt id='1246'> +3.0282301e+11 </wgt>
<wgt id='1247'> +2.8001737e+11 </wgt>
<wgt id='1248'> +2.7558726e+11 </wgt>
<wgt id='1249'> +2.7565838e+11 </wgt>
<wgt id='1250'> +2.9775917e+11 </wgt>
<wgt id='1251'> +3.1030710e+11 </wgt>
<wgt id='1252'> +2.8803326e+11 </wgt>
<wgt id='1253'> +3.1297229e+11 </wgt>
<wgt id='1254'> +2.9347302e+11 </wgt>
<wgt id='1255'> +3.1761787e+11 </wgt>
<wgt id='1256'> +3.1227564e+11 </wgt>
<wgt id='1257'> +2.9338641e+11 </wgt>
<wgt id='1258'> +2.9410202e+11 </wgt>
<wgt id='1259'> +3.2729383e+11 </wgt>
<wgt id='1260'> +3.4825898e+11 </wgt>
<wgt id='1261'> +3.3260361e+11 </wgt>
<wgt id='1262'> +3.0469049e+11 </wgt>
<wgt id='1263'> +3.1006192e+11 </wgt>
<wgt id='1264'> +3.0514079e+11 </wgt>
<wgt id='1265'> +2.8583613e+11 </wgt>
<wgt id='1266'> +3.0779117e+11 </wgt>
<wgt id='1267'> +3.9560223e+11 </wgt>
<wgt id='1268'> +2.8563406e+11 </wgt>
<wgt id='1269'> +2.8273884e+11 </wgt>
<wgt id='1270'> +3.2479462e+11 </wgt>
<wgt id='1271'> +2.5073116e+11 </wgt>
<wgt id='1272'> +3.0271093e+11 </wgt>
<wgt id='1273'> +2.9451678e+11 </wgt>
<wgt id='1274'> +2.9394164e+11 </wgt>
<wgt id='1275'> +2.8918959e+11 </wgt>
<wgt id='1276'> +3.1945399e+11 </wgt>
<wgt id='1277'> +3.2023673e+11 </wgt>
<wgt id='1278'> +3.1244227e+11 </wgt>
<wgt id='1279'> +2.7656473e+11 </wgt>
<wgt id='1280'> +3.0140438e+11 </wgt>
<wgt id='1281'> +2.8582811e+11 </wgt>
<wgt id='1282'> +2.9226542e+11 </wgt>
<wgt id='1283'> +3.3314501e+11 </wgt>
<wgt id='1284'> +2.9703912e+11 </wgt>
<wgt id='1285'> +3.0037376e+11 </wgt>
<wgt id='1286'> +3.5585291e+11 </wgt>
<wgt id='1287'> +3.5609071e+11 </wgt>
<wgt id='1288'> +3.7744241e+11 </wgt>
<wgt id='1289'> +3.3150730e+11 </wgt>
<wgt id='1290'> +3.1818222e+11 </wgt>
<wgt id='1291'> +2.8367222e+11 </wgt>
<wgt id='1292'> +3.1388344e+11 </wgt>
<wgt id='1293'> +3.0580581e+11 </wgt>
<wgt id='1294'> +3.6021505e+11 </wgt>
<wgt id='1295'> +3.1905352e+11 </wgt>
<wgt id='1296'> +3.6615840e+11 </wgt>
<wgt id='1297'> +2.8071714e+11 </wgt>
<wgt id='1298'> +2.9500426e+11 </wgt>
<wgt id='1299'> +3.1088981e+11 </wgt>
<wgt id='1300'> +2.5897776e+11 </wgt>
<wgt id='1301'> +2.7634669e+11 </wgt>
<wgt id='1302'> +2.7475201e+11 </wgt>
<wgt id='1303'> +3.1510540e+11 </wgt>
<wgt id='1304'> +3.5987167e+11 </wgt>
<wgt id='1305'> +2.9577128e+11 </wgt>
<wgt id='1306'> +3.0729787e+11 </wgt>
<wgt id='1307'> +2.7046036e+11 </wgt>
<wgt id='1308'> +3.4362430e+11 </wgt>
<wgt id='1309'> +3.1463826e+11 </wgt>
<wgt id='1310'> +3.0951999e+11 </wgt>
<wgt id='1311'> +2.8815845e+11 </wgt>
<wgt id='1312'> +3.5232801e+11 </wgt>
<wgt id='1313'> +3.2303225e+11 </wgt>
<wgt id='1314'> +2.7633462e+11 </wgt>
<wgt id='1315'> +2.8376124e+11 </wgt>
<wgt id='1316'> +3.0109879e+11 </wgt>
<wgt id='1317'> +3.4777349e+11 </wgt>
<wgt id='1318'> +2.9130864e+11 </wgt>
<wgt id='1319'> +3.0613150e+11 </wgt>
<wgt id='1320'> +3.3022188e+11 </wgt>
<wgt id='1321'> +3.1884083e+11 </wgt>
<wgt id='1322'> +3.3150927e+11 </wgt>
<wgt id='1323'> +2.6846240e+11 </wgt>
<wgt id='1324'> +3.2736865e+11 </wgt>
<wgt id='1325'> +3.1984233e+11 </wgt>
<wgt id='1326'> +3.2087195e+11 </wgt>
<wgt id='1327'> +3.3523425e+11 </wgt>
<wgt id='1328'> +3.1788909e+11 </wgt>
<wgt id='1329'> +2.9269676e+11 </wgt>
<wgt id='1330'> +2.7607014e+11 </wgt>
<wgt id='1331'> +3.3262118e+11 </wgt>
<wgt id='1332'> +3.1976823e+11 </wgt>
<wgt id='1333'> +3.0479881e+11 </wgt>
<wgt id='1334'> +3.4136129e+11 </wgt>
<wgt id='1335'> +2.7839551e+11 </wgt>
<wgt id='1336'> +3.4872830e+11 </wgt>
<wgt id='1337'> +3.1421677e+11 </wgt>
<wgt id='1338'> +2.8095296e+11 </wgt>
<wgt id='1339'> +2.9914968e+11 </wgt>
<wgt id='1340'> +3.4117347e+11 </wgt>
<wgt id='1341'> +3.7752022e+11 </wgt>
<wgt id='1342'> +2.8484825e+11 </wgt>
<wgt id='1343'> +3.1292182e+11 </wgt>
<wgt id='1344'> +3.3561224e+11 </wgt>
<wgt id='1345'> +2.3234343e+11 </wgt>
<wgt id='1346'> +3.0882782e+11 </wgt>
<wgt id='1347'> +3.0721781e+11 </wgt>
<wgt id='1348'> +2.8807041e+11 </wgt>
<wgt id='1349'> +2.9428674e+11 </wgt>
<wgt id='1350'> +3.4412541e+11 </wgt>
<wgt id='1351'> +2.8697999e+11 </wgt>
<wgt id='1352'> +3.1238386e+11 </wgt>
<wgt id='1353'> +3.1370424e+11 </wgt>
<wgt id='1354'> +3.1954617e+11 </wgt>
<wgt id='1355'> +2.8492712e+11 </wgt>
<wgt id='1356'> +2.8760498e+11 </wgt>
<wgt id='1357'> +2.8830411e+11 </wgt>
<wgt id='1358'> +2.8237717e+11 </wgt>
<wgt id='1359'> +2.8215569e+11 </wgt>
<wgt id='1360'> +2.7933337e+11 </wgt>
<wgt id='1361'> +2.8340941e+11 </wgt>
<wgt id='1362'> +2.9413472e+11 </wgt>
<wgt id='1363'> +2.8435230e+11 </wgt>
<wgt id='1364'> +3.0052036e+11 </wgt>
<wgt id='1365'> +2.8208166e+11 </wgt>
<wgt id='1366'> +2.8322484e+11 </wgt>
<wgt id='1367'> +2.7894654e+11 </wgt>
<wgt id='1368'> +2.9014463e+11 </wgt>
<wgt id='1369'> +2.8804346e+11 </wgt>
<wgt id='1370'> +2.7499955e+11 </wgt>
<wgt id='1371'> +2.7953983e+11 </wgt>
<wgt id='1372'> +2.7851793e+11 </wgt>
<wgt id='1373'> +2.9303637e+11 </wgt>
<wgt id='1374'> +2.8408775e+11 </wgt>
<wgt id='1375'> +2.8736260e+11 </wgt>
<wgt id='1376'> +2.8614344e+11 </wgt>
<wgt id='1377'> +2.8335906e+11 </wgt>
<wgt id='1378'> +2.9088220e+11 </wgt>
<wgt id='1379'> +2.8167695e+11 </wgt>
<wgt id='1380'> +2.8220565e+11 </wgt>
<wgt id='1381'> +2.8841655e+11 </wgt>
<wgt id='1382'> +2.7991500e+11 </wgt>
<wgt id='1383'> +2.8114212e+11 </wgt>
<wgt id='1384'> +2.7484362e+11 </wgt>
<wgt id='1385'> +2.7914976e+11 </wgt>
<wgt id='1386'> +2.8056616e+11 </wgt>
<wgt id='1387'> +2.8579788e+11 </wgt>
<wgt id='1388'> +2.8274255e+11 </wgt>
<wgt id='1389'> +2.7909827e+11 </wgt>
<wgt id='1390'> +2.8842948e+11 </wgt>
<wgt id='1391'> +2.9147960e+11 </wgt>
<wgt id='1392'> +2.7484017e+11 </wgt>
<wgt id='1393'> +2.8966167e+11 </wgt>
<wgt id='1394'> +2.8865604e+11 </wgt>
<wgt id='1395'> +2.7589255e+11 </wgt>
<wgt id='1396'> +2.8486531e+11 </wgt>
<wgt id='1397'> +2.8335688e+11 </wgt>
<wgt id='1398'> +2.9664855e+11 </wgt>
<wgt id='1399'> +2.8157157e+11 </wgt>
<wgt id='1400'> +2.7802684e+11 </wgt>
<wgt id='1401'> +2.8178066e+11 </wgt>
<wgt id='1402'> +2.8676517e+11 </wgt>
<wgt id='1403'> +2.9949821e+11 </wgt>
<wgt id='1404'> +2.8920840e+11 </wgt>
<wgt id='1405'> +2.9875233e+11 </wgt>
<wgt id='1406'> +2.9271433e+11 </wgt>
<wgt id='1407'> +2.9305178e+11 </wgt>
<wgt id='1408'> +3.0008244e+11 </wgt>
<wgt id='1409'> +2.7702955e+11 </wgt>
<wgt id='1410'> +2.7962628e+11 </wgt>
<wgt id='1411'> +2.8426913e+11 </wgt>
<wgt id='1412'> +2.9280584e+11 </wgt>
<wgt id='1413'> +2.9409396e+11 </wgt>
<wgt id='1414'> +2.8815297e+11 </wgt>
<wgt id='1415'> +2.7708500e+11 </wgt>
<wgt id='1416'> +2.8414686e+11 </wgt>
<wgt id='1417'> +2.8004851e+11 </wgt>
<wgt id='1418'> +2.8183354e+11 </wgt>
<wgt id='1419'> +2.8635663e+11 </wgt>
<wgt id='1420'> +2.6994434e+11 </wgt>
<wgt id='1421'> +2.9508867e+11 </wgt>
<wgt id='1422'> +2.7309377e+11 </wgt>
<wgt id='1423'> +2.8578894e+11 </wgt>
<wgt id='1424'> +2.8086745e+11 </wgt>
<wgt id='1425'> +2.8314667e+11 </wgt>
<wgt id='1426'> +2.9091562e+11 </wgt>
<wgt id='1427'> +2.8001102e+11 </wgt>
<wgt id='1428'> +2.7858791e+11 </wgt>
<wgt id='1429'> +2.8513896e+11 </wgt>
<wgt id='1430'> +2.8073702e+11 </wgt>
<wgt id='1431'> +2.8852319e+11 </wgt>
<wgt id='1432'> +2.7499809e+11 </wgt>
<wgt id='1433'> +2.7491495e+11 </wgt>
<wgt id='1434'> +2.8540823e+11 </wgt>
<wgt id='1435'> +2.8763060e+11 </wgt>
<wgt id='1436'> +2.8779813e+11 </wgt>
<wgt id='1437'> +2.8264321e+11 </wgt>
<wgt id='1438'> +2.8403701e+11 </wgt>
<wgt id='1439'> +2.9514625e+11 </wgt>
<wgt id='1440'> +2.8369053e+11 </wgt>
<wgt id='1441'> +2.8046019e+11 </wgt>
<wgt id='1442'> +2.8451430e+11 </wgt>
<wgt id='1443'> +2.7681033e+11 </wgt>
<wgt id='1444'> +2.9693866e+11 </wgt>
<wgt id='1445'> +2.7929983e+11 </wgt>
<wgt id='1446'> +3.0032406e+11 </wgt>
<wgt id='1447'> +2.9074933e+11 </wgt>
<wgt id='1448'> +2.8859351e+11 </wgt>
<wgt id='1449'> +2.8598856e+11 </wgt>
<wgt id='1450'> +2.8143183e+11 </wgt>
<wgt id='1451'> +2.7939578e+11 </wgt>
<wgt id='1452'> +2.8927401e+11 </wgt>
<wgt id='1453'> +2.9377662e+11 </wgt>
<wgt id='1454'> +2.7454195e+11 </wgt>
<wgt id='1455'> +2.8386684e+11 </wgt>
<wgt id='1456'> +2.8132292e+11 </wgt>
<wgt id='1457'> +2.8712661e+11 </wgt>
<wgt id='1458'> +2.9592517e+11 </wgt>
<wgt id='1459'> +3.1562443e+11 </wgt>
<wgt id='1460'> +3.0961119e+11 </wgt>
<wgt id='1461'> +3.8059273e+11 </wgt>
<wgt id='1462'> +3.1069461e+11 </wgt>
<wgt id='1463'> +3.1090351e+11 </wgt>
<wgt id='1464'> +3.1042667e+11 </wgt>
<wgt id='1465'> +3.1076986e+11 </wgt>
<wgt id='1466'> +3.1062588e+11 </wgt>
<wgt id='1467'> +3.1077658e+11 </wgt>
<wgt id='1468'> +3.1056009e+11 </wgt>
<wgt id='1469'> +3.1025479e+11 </wgt>
<wgt id='1470'> +3.1105176e+11 </wgt>
<wgt id='1471'> +3.1113822e+11 </wgt>
<wgt id='1472'> +3.1023767e+11 </wgt>
<wgt id='1473'> +3.1197366e+11 </wgt>
<wgt id='1474'> +3.0946600e+11 </wgt>
<wgt id='1475'> +3.1188350e+11 </wgt>
<wgt id='1476'> +3.0985208e+11 </wgt>
<wgt id='1477'> +3.1014160e+11 </wgt>
<wgt id='1478'> +3.1198697e+11 </wgt>
<wgt id='1479'> +3.1050219e+11 </wgt>
<wgt id='1480'> +3.1083748e+11 </wgt>
<wgt id='1481'> +3.0989866e+11 </wgt>
<wgt id='1482'> +3.1177517e+11 </wgt>
<wgt id='1483'> +3.1070450e+11 </wgt>
<wgt id='1484'> +3.1069026e+11 </wgt>
<wgt id='1485'> +3.1088259e+11 </wgt>
<wgt id='1486'> +3.1024125e+11 </wgt>
<wgt id='1487'> +3.1095580e+11 </wgt>
<wgt id='1488'> +3.1036343e+11 </wgt>
<wgt id='1489'> +3.1028671e+11 </wgt>
<wgt id='1490'> +3.1180127e+11 </wgt>
<wgt id='1491'> +3.1617537e+11 </wgt>
<wgt id='1492'> +3.0764326e+11 </wgt>
<wgt id='1493'> +3.0673743e+11 </wgt>
<wgt id='1494'> +3.2310430e+11 </wgt>
<wgt id='1495'> +3.0958580e+11 </wgt>
<wgt id='1496'> +3.1188709e+11 </wgt>
<wgt id='1497'> +3.1096042e+11 </wgt>
<wgt id='1498'> +3.1033280e+11 </wgt>
<wgt id='1499'> +3.1323275e+11 </wgt>
<wgt id='1500'> +3.0931244e+11 </wgt>
<wgt id='1501'> +3.1076402e+11 </wgt>
<wgt id='1502'> +3.1054161e+11 </wgt>
<wgt id='1503'> +3.0417505e+11 </wgt>
<wgt id='1504'> +3.1829287e+11 </wgt>
<wgt id='1505'> +3.1091054e+11 </wgt>
<wgt id='1506'> +3.1048256e+11 </wgt>
<wgt id='1507'> +3.1692426e+11 </wgt>
<wgt id='1508'> +2.9912723e+11 </wgt>
<wgt id='1509'> +3.1179828e+11 </wgt>
<wgt id='1510'> +3.0591158e+11 </wgt>
<wgt id='1511'> +3.1186380e+11 </wgt>
<wgt id='1512'> +3.1061499e+11 </wgt>
<wgt id='1513'> +3.1029906e+11 </wgt>
<wgt id='1514'> +3.1114925e+11 </wgt>
<wgt id='1515'> +3.1700923e+11 </wgt>
<wgt id='1516'> +3.0858995e+11 </wgt>
<wgt id='1517'> +3.0983516e+11 </wgt>
<wgt id='1518'> +3.1223612e+11 </wgt>
<wgt id='1519'> +3.0821840e+11 </wgt>
<wgt id='1520'> +3.1244231e+11 </wgt>
<wgt id='1521'> +3.0880434e+11 </wgt>
<wgt id='1522'> +3.1172569e+11 </wgt>
<wgt id='1523'> +3.1211612e+11 </wgt>
<wgt id='1524'> +3.1252613e+11 </wgt>
<wgt id='1525'> +3.1094372e+11 </wgt>
<wgt id='1526'> +3.1298178e+11 </wgt>
<wgt id='1527'> +3.1069461e+11 </wgt>
<wgt id='1528'> +3.0782284e+11 </wgt>
<wgt id='1529'> +3.1361811e+11 </wgt>
<wgt id='1530'> +3.0184070e+11 </wgt>
<wgt id='1531'> +3.2131316e+11 </wgt>
<wgt id='1532'> +3.2408944e+11 </wgt>
<wgt id='1533'> +3.1491441e+11 </wgt>
<wgt id='1534'> +3.1887214e+11 </wgt>
<wgt id='1535'> +3.2552743e+11 </wgt>
<wgt id='1536'> +3.1585530e+11 </wgt>
<wgt id='1537'> +3.2642258e+11 </wgt>
<wgt id='1538'> +3.1615055e+11 </wgt>
<wgt id='1539'> +3.2667236e+11 </wgt>
<wgt id='1540'> +3.2507298e+11 </wgt>
<wgt id='1541'> +3.2424331e+11 </wgt>
<wgt id='1542'> +3.2229269e+11 </wgt>
<wgt id='1543'> +3.2454990e+11 </wgt>
<wgt id='1544'> +3.1923193e+11 </wgt>
<wgt id='1545'> +3.1944730e+11 </wgt>
<wgt id='1546'> +3.1779364e+11 </wgt>
<wgt id='1547'> +3.2348142e+11 </wgt>
<wgt id='1548'> +3.2098013e+11 </wgt>
<wgt id='1549'> +3.1770153e+11 </wgt>
<wgt id='1550'> +3.2483399e+11 </wgt>
<wgt id='1551'> +3.2206041e+11 </wgt>
<wgt id='1552'> +3.2205553e+11 </wgt>
<wgt id='1553'> +3.3124801e+11 </wgt>
<wgt id='1554'> +3.2217920e+11 </wgt>
<wgt id='1555'> +3.2225648e+11 </wgt>
<wgt id='1556'> +3.2345579e+11 </wgt>
<wgt id='1557'> +3.2127216e+11 </wgt>
<wgt id='1558'> +3.2147796e+11 </wgt>
<wgt id='1559'> +3.1917023e+11 </wgt>
<wgt id='1560'> +3.2121728e+11 </wgt>
<wgt id='1561'> +3.2040046e+11 </wgt>
<wgt id='1562'> +3.1801195e+11 </wgt>
<wgt id='1563'> +3.2180169e+11 </wgt>
<wgt id='1564'> +3.2094353e+11 </wgt>
<wgt id='1565'> +3.2612020e+11 </wgt>
<wgt id='1566'> +3.2127219e+11 </wgt>
<wgt id='1567'> +3.1931130e+11 </wgt>
<wgt id='1568'> +3.2109103e+11 </wgt>
<wgt id='1569'> +3.2059577e+11 </wgt>
<wgt id='1570'> +3.2896607e+11 </wgt>
<wgt id='1571'> +3.2105249e+11 </wgt>
<wgt id='1572'> +3.2133488e+11 </wgt>
<wgt id='1573'> +3.2805449e+11 </wgt>
<wgt id='1574'> +2.4204047e+11 </wgt>
<wgt id='1575'> +2.4210110e+11 </wgt>
<wgt id='1576'> +2.4197074e+11 </wgt>
<wgt id='1577'> +2.4205790e+11 </wgt>
<wgt id='1578'> +2.4259840e+11 </wgt>
<wgt id='1579'> +2.4276147e+11 </wgt>
<wgt id='1580'> +2.4252188e+11 </wgt>
<wgt id='1581'> +2.4173503e+11 </wgt>
<wgt id='1582'> +2.4150490e+11 </wgt>
<wgt id='1583'> +2.4154043e+11 </wgt>
<wgt id='1584'> +2.4259735e+11 </wgt>
<wgt id='1585'> +2.4238740e+11 </wgt>
<wgt id='1586'> +2.4147006e+11 </wgt>
<wgt id='1587'> +2.4152192e+11 </wgt>
<wgt id='1588'> +2.4113709e+11 </wgt>
<wgt id='1589'> +2.4163313e+11 </wgt>
<wgt id='1590'> +2.4190121e+11 </wgt>
<wgt id='1591'> +2.4212183e+11 </wgt>
<wgt id='1592'> +2.4114125e+11 </wgt>
<wgt id='1593'> +2.4076798e+11 </wgt>
<wgt id='1594'> +2.4332209e+11 </wgt>
<wgt id='1595'> +2.3929059e+11 </wgt>
<wgt id='1596'> +2.4681284e+11 </wgt>
<wgt id='1597'> +2.4385356e+11 </wgt>
<wgt id='1598'> +2.4386200e+11 </wgt>
<wgt id='1599'> +2.3883076e+11 </wgt>
<wgt id='1600'> +2.4729181e+11 </wgt>
<wgt id='1601'> +2.4418472e+11 </wgt>
<wgt id='1602'> +2.4222794e+11 </wgt>
<wgt id='1603'> +2.5911398e+11 </wgt>
<wgt id='1604'> +2.4193014e+11 </wgt>
</rwgt>
</event>
<event>
 9      1 +2.8343000e+11 1.40000000e+03 7.81738600e-03 7.88881200e-02
       21 -1    0    0  504  503 +0.0000000000e+00 +0.0000000000e+00 +5.2848447405e+02 5.2848447405e+02 0.0000000000e+00 0.0000e+00 1.0000e+00
       21 -1    0    0  503  504 -0.0000000000e+00 -0.0000000000e+00 -9.2717969129e+02 9.2717969129e+02 0.0000000000e+00 0.0000e+00 1.0000e+00
       45  2    1    2    0    0 +0.0000000000e+00 +0.0000000000e+00 -3.9869521724e+02 1.4556641653e+03 1.4000001021e+03 0.0000e+00 0.0000e+00
       25  2    3    3    0    0 -6.7936327321e+02 +6.5854556134e+01 -3.1530030326e+02 7.6217571233e+02 1.2500502260e+02 0.0000e+00 0.0000e+00
       35  2    3    3    0    0 +6.7936327321e+02 -6.5854556134e+01 -8.3394913975e+01 6.9348845301e+02 9.0001351316e+01 0.0000e+00 0.0000e+00
        5  1    5    5  501    0 +1.9459780844e+02 -4.6364313272e+01 -5.4864604707e+01 2.0747491232e+02 4.2140000000e+00 0.0000e+00 1.0000e+00
       -5  1    5    5    0  501 +4.8476546477e+02 -1.9490242862e+01 -2.8530309268e+01 4.8601354070e+02 4.2140000000e+00 0.0000e+00 1.0000e+00
        5  1    4    4  502    0 -4.6007798739e+02 +5.8703923995e+01 -2.7451603367e+02 5.3897561699e+02 4.2140000000e+00 0.0000e+00 -1.0000e+00
       -5  1    4    4    0  502 -2.1928528582e+02 +7.1506321387e+00 -4.0784269599e+01 2.2320009534e+02 4.2140000000e+00 0.0000e+00 -1.0000e+00
<mgrwt>
<rscale>  0 0.14000001E+04</rscale>
<asrwt>0</asrwt>
<pdfrwt beam="1">  1       21 0.81305303E-01 0.14000001E+04</pdfrwt>
<pdfrwt beam="2">  1       21 0.14264303E+00 0.14000001E+04</pdfrwt>
<totfact> 0.33623014E+02</totfact>
</mgrwt>
<rwgt>
<wgt id='1001'> +2.8343000e+11 </wgt>
<wgt id='1002'> +2.8446213e+11 </wgt>
<wgt id='1003'> +2.8446181e+11 </wgt>
<wgt id='1004'> +3.1917648e+11 </wgt>
<wgt id='1005'> +2.8343000e+11 </wgt>
<wgt id='1006'> +2.8343000e+11 </wgt>
<wgt id='1007'> +2.8446213e+11 </wgt>
<wgt id='1008'> +2.8446181e+11 </wgt>
<wgt id='1009'> +3.1917648e+11 </wgt>
<wgt id='1010'> +2.8343000e+11 </wgt>
<wgt id='1011'> +2.8343000e+11 </wgt>
<wgt id='1012'> +2.8446213e+11 </wgt>
<wgt id='1013'> +2.8446181e+11 </wgt>
<wgt id='1014'> +3.1917648e+11 </wgt>
<wgt id='1015'> +2.8343000e+11 </wgt>
<wgt id='1016'> +2.5449442e+11 </wgt>
<wgt id='1017'> +2.5536850e+11 </wgt>
<wgt id='1018'> +2.5536823e+11 </wgt>
<wgt id='1019'> +2.8446181e+11 </wgt>
<wgt id='1020'> +2.5449442e+11 </wgt>
<wgt id='1021'> +2.5449442e+11 </wgt>
<wgt id='1022'> +2.5536850e+11 </wgt>
<wgt id='1023'> +2.5536823e+11 </wgt>
<wgt id='1024'> +2.8446181e+11 </wgt>
<wgt id='1025'> +2.5449442e+11 </wgt>
<wgt id='1026'> +2.5449442e+11 </wgt>
<wgt id='1027'> +2.5536850e+11 </wgt>
<wgt id='1028'> +2.5536823e+11 </wgt>
<wgt id='1029'> +2.8446181e+11 </wgt>
<wgt id='1030'> +2.5449442e+11 </wgt>
<wgt id='1031'> +3.1793766e+11 </wgt>
<wgt id='1032'> +3.1917686e+11 </wgt>
<wgt id='1033'> +3.1917648e+11 </wgt>
<wgt id='1034'> +3.6093709e+11 </wgt>
<wgt id='1035'> +3.1793766e+11 </wgt>
<wgt id='1036'> +3.1793766e+11 </wgt>
<wgt id='1037'> +3.1917686e+11 </wgt>
<wgt id='1038'> +3.1917648e+11 </wgt>
<wgt id='1039'> +3.6093709e+11 </wgt>
<wgt id='1040'> +3.1793766e+11 </wgt>
<wgt id='1041'> +3.1793766e+11 </wgt>
<wgt id='1042'> +3.1917686e+11 </wgt>
<wgt id='1043'> +3.1917648e+11 </wgt>
<wgt id='1044'> +3.6093709e+11 </wgt>
<wgt id='1045'> +3.1793766e+11 </wgt>
<wgt id='1046'> +2.8343000e+11 </wgt>
<wgt id='1047'> +2.8343000e+11 </wgt>
<wgt id='1048'> +2.8343000e+11 </wgt>
<wgt id='1049'> +2.8250810e+11 </wgt>
<wgt id='1050'> +2.8316632e+11 </wgt>
<wgt id='1051'> +2.8347612e+11 </wgt>
<wgt id='1052'> +2.8430956e+11 </wgt>
<wgt id='1053'> +2.8181739e+11 </wgt>
<wgt id='1054'> +2.8379849e+11 </wgt>
<wgt id='1055'> +2.8225866e+11 </wgt>
<wgt id='1056'> +2.8198062e+11 </wgt>
<wgt id='1057'> +2.8397486e+11 </wgt>
<wgt id='1058'> +2.8297023e+11 </wgt>
<wgt id='1059'> +2.8529111e+11 </wgt>
<wgt id='1060'> +2.8371163e+11 </wgt>
<wgt id='1061'> +2.8407294e+11 </wgt>
<wgt id='1062'> +2.8412698e+11 </wgt>
<wgt id='1063'> +2.8400909e+11 </wgt>
<wgt id='1064'> +2.8438363e+11 </wgt>
<wgt id='1065'> +2.8474959e+11 </wgt>
<wgt id='1066'> +2.8158613e+11 </wgt>
<wgt id='1067'> +2.8052101e+11 </wgt>
<wgt id='1068'> +2.8349645e+11 </wgt>
<wgt id='1069'> +2.8263350e+11 </wgt>
<wgt id='1070'> +2.8366778e+11 </wgt>
<wgt id='1071'> +2.8414865e+11 </wgt>
<wgt id='1072'> +2.8145238e+11 </wgt>
<wgt id='1073'> +2.8389261e+11 </wgt>
<wgt id='1074'> +2.8331004e+11 </wgt>
<wgt id='1075'> +2.8448906e+11 </wgt>
<wgt id='1076'> +2.8235248e+11 </wgt>
<wgt id='1077'> +2.8249681e+11 </wgt>
<wgt id='1078'> +2.8409564e+11 </wgt>
<wgt id='1079'> +2.8201195e+11 </wgt>
<wgt id='1080'> +2.8299463e+11 </wgt>
<wgt id='1081'> +2.8296040e+11 </wgt>
<wgt id='1082'> +2.8212424e+11 </wgt>
<wgt id='1083'> +2.8387814e+11 </wgt>
<wgt id='1084'> +2.8399997e+11 </wgt>
<wgt id='1085'> +2.8280330e+11 </wgt>
<wgt id='1086'> +2.8297916e+11 </wgt>
<wgt id='1087'> +2.8309995e+11 </wgt>
<wgt id='1088'> +2.8293721e+11 </wgt>
<wgt id='1089'> +2.8275041e+11 </wgt>
<wgt id='1090'> +2.8414341e+11 </wgt>
<wgt id='1091'> +2.8352367e+11 </wgt>
<wgt id='1092'> +2.8369285e+11 </wgt>
<wgt id='1093'> +2.8331210e+11 </wgt>
<wgt id='1094'> +2.8281982e+11 </wgt>
<wgt id='1095'> +2.8358342e+11 </wgt>
<wgt id='1096'> +2.8335584e+11 </wgt>
<wgt id='1097'> +2.8302088e+11 </wgt>
<wgt id='1098'> +2.8309333e+11 </wgt>
<wgt id='1099'> +2.8316692e+11 </wgt>
<wgt id='1100'> +2.8401527e+11 </wgt>
<wgt id='1101'> +2.8341534e+11 </wgt>
<wgt id='1102'> +2.8328601e+11 </wgt>
<wgt id='1103'> +2.8306928e+11 </wgt>
<wgt id='1104'> +2.8313572e+11 </wgt>
<wgt id='1105'> +2.8354773e+11 </wgt>
<wgt id='1106'> +2.8374693e+11 </wgt>
<wgt id='1107'> +2.8335893e+11 </wgt>
<wgt id='1108'> +2.8332414e+11 </wgt>
<wgt id='1109'> +2.8321758e+11 </wgt>
<wgt id='1110'> +2.8374592e+11 </wgt>
<wgt id='1111'> +2.8356267e+11 </wgt>
<wgt id='1112'> +2.8338919e+11 </wgt>
<wgt id='1113'> +2.8374336e+11 </wgt>
<wgt id='1114'> +2.8311299e+11 </wgt>
<wgt id='1115'> +2.8319731e+11 </wgt>
<wgt id='1116'> +2.8379902e+11 </wgt>
<wgt id='1117'> +2.8336786e+11 </wgt>
<wgt id='1118'> +2.8353909e+11 </wgt>
<wgt id='1119'> +2.8321913e+11 </wgt>
<wgt id='1120'> +2.8325921e+11 </wgt>
<wgt id='1121'> +2.8348743e+11 </wgt>
<wgt id='1122'> +2.8320888e+11 </wgt>
<wgt id='1123'> +2.8337699e+11 </wgt>
<wgt id='1124'> +2.8337910e+11 </wgt>
<wgt id='1125'> +2.8359276e+11 </wgt>
<wgt id='1126'> +2.8353956e+11 </wgt>
<wgt id='1127'> +2.8332380e+11 </wgt>
<wgt id='1128'> +2.8345082e+11 </wgt>
<wgt id='1129'> +2.8336623e+11 </wgt>
<wgt id='1130'> +2.8346564e+11 </wgt>
<wgt id='1131'> +2.8373768e+11 </wgt>
<wgt id='1132'> +2.8335000e+11 </wgt>
<wgt id='1133'> +2.8351088e+11 </wgt>
<wgt id='1134'> +2.8340999e+11 </wgt>
<wgt id='1135'> +2.8347220e+11 </wgt>
<wgt id='1136'> +2.8338118e+11 </wgt>
<wgt id='1137'> +2.8327129e+11 </wgt>
<wgt id='1138'> +2.8355224e+11 </wgt>
<wgt id='1139'> +2.8348075e+11 </wgt>
<wgt id='1140'> +2.8363746e+11 </wgt>
<wgt id='1141'> +2.8327922e+11 </wgt>
<wgt id='1142'> +2.8350465e+11 </wgt>
<wgt id='1143'> +2.8359845e+11 </wgt>
<wgt id='1144'> +2.8334127e+11 </wgt>
<wgt id='1145'> +2.8356243e+11 </wgt>
<wgt id='1146'> +2.8342687e+11 </wgt>
<wgt id='1147'> +2.8348007e+11 </wgt>
<wgt id='1148'> +2.8343000e+11 </wgt>
<wgt id='1149'> +2.8343000e+11 </wgt>
<wgt id='1150'> +2.9447955e+11 </wgt>
<wgt id='1151'> +2.7973720e+11 </wgt>
<wgt id='1152'> +2.8210193e+11 </wgt>
<wgt id='1153'> +2.8696152e+11 </wgt>
<wgt id='1154'> +2.8559302e+11 </wgt>
<wgt id='1155'> +2.8996983e+11 </wgt>
<wgt id='1156'> +2.7698538e+11 </wgt>
<wgt id='1157'> +2.7543566e+11 </wgt>
<wgt id='1158'> +2.7737462e+11 </wgt>
<wgt id='1159'> +2.9807208e+11 </wgt>
<wgt id='1160'> +2.8302788e+11 </wgt>
<wgt id='1161'> +2.8566308e+11 </wgt>
<wgt id='1162'> +2.8013584e+11 </wgt>
<wgt id='1163'> +2.8638418e+11 </wgt>
<wgt id='1164'> +2.6957578e+11 </wgt>
<wgt id='1165'> +2.7823442e+11 </wgt>
<wgt id='1166'> +2.8409472e+11 </wgt>
<wgt id='1167'> +2.7896647e+11 </wgt>
<wgt id='1168'> +2.7572542e+11 </wgt>
<wgt id='1169'> +2.7574183e+11 </wgt>
<wgt id='1170'> +2.7975276e+11 </wgt>
<wgt id='1171'> +2.7307231e+11 </wgt>
<wgt id='1172'> +2.7651583e+11 </wgt>
<wgt id='1173'> +2.8671296e+11 </wgt>
<wgt id='1174'> +2.7842961e+11 </wgt>
<wgt id='1175'> +2.7643962e+11 </wgt>
<wgt id='1176'> +2.8634043e+11 </wgt>
<wgt id='1177'> +2.7855172e+11 </wgt>
<wgt id='1178'> +2.8309943e+11 </wgt>
<wgt id='1179'> +2.8094418e+11 </wgt>
<wgt id='1180'> +2.8835498e+11 </wgt>
<wgt id='1181'> +2.8108447e+11 </wgt>
<wgt id='1182'> +2.8073546e+11 </wgt>
<wgt id='1183'> +2.9341923e+11 </wgt>
<wgt id='1184'> +2.8106344e+11 </wgt>
<wgt id='1185'> +2.8434837e+11 </wgt>
<wgt id='1186'> +2.7404321e+11 </wgt>
<wgt id='1187'> +2.8489609e+11 </wgt>
<wgt id='1188'> +2.8232368e+11 </wgt>
<wgt id='1189'> +2.8403053e+11 </wgt>
<wgt id='1190'> +2.8292561e+11 </wgt>
<wgt id='1191'> +2.9324783e+11 </wgt>
<wgt id='1192'> +2.9058388e+11 </wgt>
<wgt id='1193'> +2.9367235e+11 </wgt>
<wgt id='1194'> +2.8312037e+11 </wgt>
<wgt id='1195'> +2.8367959e+11 </wgt>
<wgt id='1196'> +2.9198735e+11 </wgt>
<wgt id='1197'> +2.9271649e+11 </wgt>
<wgt id='1198'> +2.7906965e+11 </wgt>
<wgt id='1199'> +2.8510788e+11 </wgt>
<wgt id='1200'> +2.8406845e+11 </wgt>
<wgt id='1201'> +2.7966443e+11 </wgt>
<wgt id='1202'> +2.8782723e+11 </wgt>
<wgt id='1203'> +2.7886157e+11 </wgt>
<wgt id='1204'> +2.8609842e+11 </wgt>
<wgt id='1205'> +2.8425204e+11 </wgt>
<wgt id='1206'> +2.7765934e+11 </wgt>
<wgt id='1207'> +2.9214297e+11 </wgt>
<wgt id='1208'> +2.7179254e+11 </wgt>
<wgt id='1209'> +2.8039987e+11 </wgt>
<wgt id='1210'> +2.8234985e+11 </wgt>
<wgt id='1211'> +2.8570589e+11 </wgt>
<wgt id='1212'> +2.8325812e+11 </wgt>
<wgt id='1213'> +2.9173816e+11 </wgt>
<wgt id='1214'> +2.7612345e+11 </wgt>
<wgt id='1215'> +2.8949043e+11 </wgt>
<wgt id='1216'> +2.8484508e+11 </wgt>
<wgt id='1217'> +2.7633523e+11 </wgt>
<wgt id='1218'> +2.8466389e+11 </wgt>
<wgt id='1219'> +2.9395817e+11 </wgt>
<wgt id='1220'> +2.7794644e+11 </wgt>
<wgt id='1221'> +2.7567877e+11 </wgt>
<wgt id='1222'> +2.7956011e+11 </wgt>
<wgt id='1223'> +2.7278678e+11 </wgt>
<wgt id='1224'> +2.8331094e+11 </wgt>
<wgt id='1225'> +2.8835942e+11 </wgt>
<wgt id='1226'> +2.8901619e+11 </wgt>
<wgt id='1227'> +2.7579633e+11 </wgt>
<wgt id='1228'> +2.8163410e+11 </wgt>
<wgt id='1229'> +3.0227260e+11 </wgt>
<wgt id='1230'> +2.9246971e+11 </wgt>
<wgt id='1231'> +2.7823442e+11 </wgt>
<wgt id='1232'> +2.8819071e+11 </wgt>
<wgt id='1233'> +2.7733653e+11 </wgt>
<wgt id='1234'> +2.7665674e+11 </wgt>
<wgt id='1235'> +3.0141938e+11 </wgt>
<wgt id='1236'> +2.7677622e+11 </wgt>
<wgt id='1237'> +2.8922978e+11 </wgt>
<wgt id='1238'> +2.8699515e+11 </wgt>
<wgt id='1239'> +2.8958041e+11 </wgt>
<wgt id='1240'> +2.8294390e+11 </wgt>
<wgt id='1241'> +2.8296098e+11 </wgt>
<wgt id='1242'> +2.8025860e+11 </wgt>
<wgt id='1243'> +2.8767318e+11 </wgt>
<wgt id='1244'> +2.8263479e+11 </wgt>
<wgt id='1245'> +2.8087475e+11 </wgt>
<wgt id='1246'> +3.0611887e+11 </wgt>
<wgt id='1247'> +2.8266231e+11 </wgt>
<wgt id='1248'> +2.7436079e+11 </wgt>
<wgt id='1249'> +2.7678633e+11 </wgt>
<wgt id='1250'> +2.9239855e+11 </wgt>
<wgt id='1251'> +2.9890340e+11 </wgt>
<wgt id='1252'> +2.8704308e+11 </wgt>
<wgt id='1253'> +2.8608212e+11 </wgt>
<wgt id='1254'> +2.8820235e+11 </wgt>
<wgt id='1255'> +2.9873065e+11 </wgt>
<wgt id='1256'> +2.9753209e+11 </wgt>
<wgt id='1257'> +2.8994032e+11 </wgt>
<wgt id='1258'> +2.9762629e+11 </wgt>
<wgt id='1259'> +2.9602553e+11 </wgt>
<wgt id='1260'> +3.2509997e+11 </wgt>
<wgt id='1261'> +3.1332359e+11 </wgt>
<wgt id='1262'> +2.9020521e+11 </wgt>
<wgt id='1263'> +2.9693620e+11 </wgt>
<wgt id='1264'> +2.9921323e+11 </wgt>
<wgt id='1265'> +2.9715180e+11 </wgt>
<wgt id='1266'> +2.9632188e+11 </wgt>
<wgt id='1267'> +3.2260915e+11 </wgt>
<wgt id='1268'> +2.9257848e+11 </wgt>
<wgt id='1269'> +2.8674103e+11 </wgt>
<wgt id='1270'> +2.9433499e+11 </wgt>
<wgt id='1271'> +2.7573510e+11 </wgt>
<wgt id='1272'> +2.9278838e+11 </wgt>
<wgt id='1273'> +2.9101376e+11 </wgt>
<wgt id='1274'> +2.8665742e+11 </wgt>
<wgt id='1275'> +2.9702118e+11 </wgt>
<wgt id='1276'> +2.9668183e+11 </wgt>
<wgt id='1277'> +2.9192901e+11 </wgt>
<wgt id='1278'> +2.9020473e+11 </wgt>
<wgt id='1279'> +2.8039940e+11 </wgt>
<wgt id='1280'> +2.9074918e+11 </wgt>
<wgt id='1281'> +2.8507762e+11 </wgt>
<wgt id='1282'> +2.9589558e+11 </wgt>
<wgt id='1283'> +2.9860205e+11 </wgt>
<wgt id='1284'> +3.1295316e+11 </wgt>
<wgt id='1285'> +3.0775821e+11 </wgt>
<wgt id='1286'> +3.2837100e+11 </wgt>
<wgt id='1287'> +3.0325749e+11 </wgt>
<wgt id='1288'> +3.2508108e+11 </wgt>
<wgt id='1289'> +3.1269867e+11 </wgt>
<wgt id='1290'> +3.1116658e+11 </wgt>
<wgt id='1291'> +2.7757407e+11 </wgt>
<wgt id='1292'> +2.9826814e+11 </wgt>
<wgt id='1293'> +3.0065477e+11 </wgt>
<wgt id='1294'> +3.1554609e+11 </wgt>
<wgt id='1295'> +3.0171686e+11 </wgt>
<wgt id='1296'> +3.1771761e+11 </wgt>
<wgt id='1297'> +2.9412751e+11 </wgt>
<wgt id='1298'> +2.8729161e+11 </wgt>
<wgt id='1299'> +2.9947148e+11 </wgt>
<wgt id='1300'> +2.8766297e+11 </wgt>
<wgt id='1301'> +2.7964054e+11 </wgt>
<wgt id='1302'> +2.7859706e+11 </wgt>
<wgt id='1303'> +2.9895149e+11 </wgt>
<wgt id='1304'> +3.0991586e+11 </wgt>
<wgt id='1305'> +2.9801890e+11 </wgt>
<wgt id='1306'> +3.0501291e+11 </wgt>
<wgt id='1307'> +2.9971942e+11 </wgt>
<wgt id='1308'> +3.2600301e+11 </wgt>
<wgt id='1309'> +2.9644282e+11 </wgt>
<wgt id='1310'> +3.0193999e+11 </wgt>
<wgt id='1311'> +3.0530184e+11 </wgt>
<wgt id='1312'> +3.0108542e+11 </wgt>
<wgt id='1313'> +2.9784401e+11 </wgt>
<wgt id='1314'> +3.0154103e+11 </wgt>
<wgt id='1315'> +2.8527269e+11 </wgt>
<wgt id='1316'> +2.9855308e+11 </wgt>
<wgt id='1317'> +3.0266875e+11 </wgt>
<wgt id='1318'> +2.8805745e+11 </wgt>
<wgt id='1319'> +3.0401416e+11 </wgt>
<wgt id='1320'> +3.1045419e+11 </wgt>
<wgt id='1321'> +2.9449271e+11 </wgt>
<wgt id='1322'> +2.9853283e+11 </wgt>
<wgt id='1323'> +2.9640093e+11 </wgt>
<wgt id='1324'> +3.0186983e+11 </wgt>
<wgt id='1325'> +3.1077621e+11 </wgt>
<wgt id='1326'> +3.0414698e+11 </wgt>
<wgt id='1327'> +2.9762354e+11 </wgt>
<wgt id='1328'> +3.0013536e+11 </wgt>
<wgt id='1329'> +2.9744894e+11 </wgt>
<wgt id='1330'> +2.8904508e+11 </wgt>
<wgt id='1331'> +3.1952258e+11 </wgt>
<wgt id='1332'> +2.8780866e+11 </wgt>
<wgt id='1333'> +3.0067420e+11 </wgt>
<wgt id='1334'> +3.1381274e+11 </wgt>
<wgt id='1335'> +2.9238808e+11 </wgt>
<wgt id='1336'> +3.0483910e+11 </wgt>
<wgt id='1337'> +3.0810043e+11 </wgt>
<wgt id='1338'> +2.8896569e+11 </wgt>
<wgt id='1339'> +3.1880322e+11 </wgt>
<wgt id='1340'> +3.0203419e+11 </wgt>
<wgt id='1341'> +3.0774506e+11 </wgt>
<wgt id='1342'> +3.1215153e+11 </wgt>
<wgt id='1343'> +3.0937351e+11 </wgt>
<wgt id='1344'> +3.0641792e+11 </wgt>
<wgt id='1345'> +2.7608210e+11 </wgt>
<wgt id='1346'> +3.0016632e+11 </wgt>
<wgt id='1347'> +2.8747280e+11 </wgt>
<wgt id='1348'> +2.8809906e+11 </wgt>
<wgt id='1349'> +2.8829170e+11 </wgt>
<wgt id='1350'> +3.0156321e+11 </wgt>
<wgt id='1351'> +2.9504087e+11 </wgt>
<wgt id='1352'> +3.0079412e+11 </wgt>
<wgt id='1353'> +2.9744616e+11 </wgt>
<wgt id='1354'> +3.0693609e+11 </wgt>
<wgt id='1355'> +2.7520759e+11 </wgt>
<wgt id='1356'> +2.7792656e+11 </wgt>
<wgt id='1357'> +2.7583046e+11 </wgt>
<wgt id='1358'> +2.7285560e+11 </wgt>
<wgt id='1359'> +2.7571058e+11 </wgt>
<wgt id='1360'> +2.6897987e+11 </wgt>
<wgt id='1361'> +2.7493526e+11 </wgt>
<wgt id='1362'> +2.7848659e+11 </wgt>
<wgt id='1363'> +2.6992281e+11 </wgt>
<wgt id='1364'> +2.8086099e+11 </wgt>
<wgt id='1365'> +2.7293063e+11 </wgt>
<wgt id='1366'> +2.7426216e+11 </wgt>
<wgt id='1367'> +2.7591899e+11 </wgt>
<wgt id='1368'> +2.7535136e+11 </wgt>
<wgt id='1369'> +2.7882227e+11 </wgt>
<wgt id='1370'> +2.7330924e+11 </wgt>
<wgt id='1371'> +2.7384983e+11 </wgt>
<wgt id='1372'> +2.7913270e+11 </wgt>
<wgt id='1373'> +2.7865812e+11 </wgt>
<wgt id='1374'> +2.6718141e+11 </wgt>
<wgt id='1375'> +2.7470300e+11 </wgt>
<wgt id='1376'> +2.7560670e+11 </wgt>
<wgt id='1377'> +2.7546181e+11 </wgt>
<wgt id='1378'> +2.7193787e+11 </wgt>
<wgt id='1379'> +2.7368459e+11 </wgt>
<wgt id='1380'> +2.7331776e+11 </wgt>
<wgt id='1381'> +2.8038840e+11 </wgt>
<wgt id='1382'> +2.7468759e+11 </wgt>
<wgt id='1383'> +2.7454642e+11 </wgt>
<wgt id='1384'> +2.7311412e+11 </wgt>
<wgt id='1385'> +2.7303600e+11 </wgt>
<wgt id='1386'> +2.7631485e+11 </wgt>
<wgt id='1387'> +2.7398849e+11 </wgt>
<wgt id='1388'> +2.7116594e+11 </wgt>
<wgt id='1389'> +2.7384166e+11 </wgt>
<wgt id='1390'> +2.7499547e+11 </wgt>
<wgt id='1391'> +2.7300788e+11 </wgt>
<wgt id='1392'> +2.7294239e+11 </wgt>
<wgt id='1393'> +2.7385238e+11 </wgt>
<wgt id='1394'> +2.7312672e+11 </wgt>
<wgt id='1395'> +2.7079991e+11 </wgt>
<wgt id='1396'> +2.7606946e+11 </wgt>
<wgt id='1397'> +2.7592516e+11 </wgt>
<wgt id='1398'> +2.7618733e+11 </wgt>
<wgt id='1399'> +2.7138300e+11 </wgt>
<wgt id='1400'> +2.7182951e+11 </wgt>
<wgt id='1401'> +2.7435916e+11 </wgt>
<wgt id='1402'> +2.7830132e+11 </wgt>
<wgt id='1403'> +2.7928690e+11 </wgt>
<wgt id='1404'> +2.7422143e+11 </wgt>
<wgt id='1405'> +2.8134162e+11 </wgt>
<wgt id='1406'> +2.7552663e+11 </wgt>
<wgt id='1407'> +2.7572875e+11 </wgt>
<wgt id='1408'> +2.7887837e+11 </wgt>
<wgt id='1409'> +2.7263593e+11 </wgt>
<wgt id='1410'> +2.7152376e+11 </wgt>
<wgt id='1411'> +2.7490900e+11 </wgt>
<wgt id='1412'> +2.7372912e+11 </wgt>
<wgt id='1413'> +2.7248672e+11 </wgt>
<wgt id='1414'> +2.7723995e+11 </wgt>
<wgt id='1415'> +2.8017398e+11 </wgt>
<wgt id='1416'> +2.7805744e+11 </wgt>
<wgt id='1417'> +2.6946662e+11 </wgt>
<wgt id='1418'> +2.7638549e+11 </wgt>
<wgt id='1419'> +2.7888917e+11 </wgt>
<wgt id='1420'> +2.7414371e+11 </wgt>
<wgt id='1421'> +2.8126357e+11 </wgt>
<wgt id='1422'> +2.6797922e+11 </wgt>
<wgt id='1423'> +2.8032449e+11 </wgt>
<wgt id='1424'> +2.7634739e+11 </wgt>
<wgt id='1425'> +2.7561499e+11 </wgt>
<wgt id='1426'> +2.7823619e+11 </wgt>
<wgt id='1427'> +2.7503160e+11 </wgt>
<wgt id='1428'> +2.7490130e+11 </wgt>
<wgt id='1429'> +2.7227543e+11 </wgt>
<wgt id='1430'> +2.7076491e+11 </wgt>
<wgt id='1431'> +2.7027991e+11 </wgt>
<wgt id='1432'> +2.7633543e+11 </wgt>
<wgt id='1433'> +2.7507178e+11 </wgt>
<wgt id='1434'> +2.8226821e+11 </wgt>
<wgt id='1435'> +2.7424252e+11 </wgt>
<wgt id='1436'> +2.7911810e+11 </wgt>
<wgt id='1437'> +2.7707381e+11 </wgt>
<wgt id='1438'> +2.7366153e+11 </wgt>
<wgt id='1439'> +2.7688092e+11 </wgt>
<wgt id='1440'> +2.7918477e+11 </wgt>
<wgt id='1441'> +2.7432379e+11 </wgt>
<wgt id='1442'> +2.8198034e+11 </wgt>
<wgt id='1443'> +2.7321240e+11 </wgt>
<wgt id='1444'> +2.7467459e+11 </wgt>
<wgt id='1445'> +2.7755841e+11 </wgt>
<wgt id='1446'> +2.7841369e+11 </wgt>
<wgt id='1447'> +2.7171955e+11 </wgt>
<wgt id='1448'> +2.7759078e+11 </wgt>
<wgt id='1449'> +2.7708867e+11 </wgt>
<wgt id='1450'> +2.7376021e+11 </wgt>
<wgt id='1451'> +2.7657241e+11 </wgt>
<wgt id='1452'> +2.7799410e+11 </wgt>
<wgt id='1453'> +2.7898695e+11 </wgt>
<wgt id='1454'> +2.6823182e+11 </wgt>
<wgt id='1455'> +2.7433101e+11 </wgt>
<wgt id='1456'> +2.7437939e+11 </wgt>
<wgt id='1457'> +2.7404756e+11 </wgt>
<wgt id='1458'> +2.7784044e+11 </wgt>
<wgt id='1459'> +3.0563714e+11 </wgt>
<wgt id='1460'> +3.0090831e+11 </wgt>
<wgt id='1461'> +3.5008874e+11 </wgt>
<wgt id='1462'> +2.9862685e+11 </wgt>
<wgt id='1463'> +2.9887009e+11 </wgt>
<wgt id='1464'> +2.9831489e+11 </wgt>
<wgt id='1465'> +2.9868917e+11 </wgt>
<wgt id='1466'> +2.9856991e+11 </wgt>
<wgt id='1467'> +2.9877983e+11 </wgt>
<wgt id='1468'> +2.9837585e+11 </wgt>
<wgt id='1469'> +2.9818194e+11 </wgt>
<wgt id='1470'> +2.9898821e+11 </wgt>
<wgt id='1471'> +2.9909761e+11 </wgt>
<wgt id='1472'> +2.9814198e+11 </wgt>
<wgt id='1473'> +2.9978169e+11 </wgt>
<wgt id='1474'> +2.9751765e+11 </wgt>
<wgt id='1475'> +2.9972704e+11 </wgt>
<wgt id='1476'> +2.9784685e+11 </wgt>
<wgt id='1477'> +2.9806073e+11 </wgt>
<wgt id='1478'> +2.9994931e+11 </wgt>
<wgt id='1479'> +2.9809745e+11 </wgt>
<wgt id='1480'> +2.9899722e+11 </wgt>
<wgt id='1481'> +2.9819061e+11 </wgt>
<wgt id='1482'> +2.9921539e+11 </wgt>
<wgt id='1483'> +2.9871958e+11 </wgt>
<wgt id='1484'> +2.9849548e+11 </wgt>
<wgt id='1485'> +2.9883037e+11 </wgt>
<wgt id='1486'> +2.9813678e+11 </wgt>
<wgt id='1487'> +2.9888304e+11 </wgt>
<wgt id='1488'> +2.9830536e+11 </wgt>
<wgt id='1489'> +2.9827298e+11 </wgt>
<wgt id='1490'> +2.9958624e+11 </wgt>
<wgt id='1491'> +3.0353911e+11 </wgt>
<wgt id='1492'> +2.9588597e+11 </wgt>
<wgt id='1493'> +2.9511596e+11 </wgt>
<wgt id='1494'> +3.0963204e+11 </wgt>
<wgt id='1495'> +2.9796721e+11 </wgt>
<wgt id='1496'> +2.9933451e+11 </wgt>
<wgt id='1497'> +2.9882514e+11 </wgt>
<wgt id='1498'> +2.9835581e+11 </wgt>
<wgt id='1499'> +3.0051579e+11 </wgt>
<wgt id='1500'> +2.9759375e+11 </wgt>
<wgt id='1501'> +2.9907878e+11 </wgt>
<wgt id='1502'> +2.9742936e+11 </wgt>
<wgt id='1503'> +2.9538100e+11 </wgt>
<wgt id='1504'> +3.0209769e+11 </wgt>
<wgt id='1505'> +2.9960453e+11 </wgt>
<wgt id='1506'> +2.9768357e+11 </wgt>
<wgt id='1507'> +3.0018273e+11 </wgt>
<wgt id='1508'> +2.9731615e+11 </wgt>
<wgt id='1509'> +2.9922512e+11 </wgt>
<wgt id='1510'> +2.9605773e+11 </wgt>
<wgt id='1511'> +2.9975340e+11 </wgt>
<wgt id='1512'> +2.9829894e+11 </wgt>
<wgt id='1513'> +2.9854088e+11 </wgt>
<wgt id='1514'> +2.9871253e+11 </wgt>
<wgt id='1515'> +3.0118636e+11 </wgt>
<wgt id='1516'> +2.9897958e+11 </wgt>
<wgt id='1517'> +2.9823849e+11 </wgt>
<wgt id='1518'> +2.9897754e+11 </wgt>
<wgt id='1519'> +2.9695755e+11 </wgt>
<wgt id='1520'> +2.9981410e+11 </wgt>
<wgt id='1521'> +2.9780554e+11 </wgt>
<wgt id='1522'> +2.9911425e+11 </wgt>
<wgt id='1523'> +2.9995332e+11 </wgt>
<wgt id='1524'> +3.0002251e+11 </wgt>
<wgt id='1525'> +2.9979270e+11 </wgt>
<wgt id='1526'> +2.9949340e+11 </wgt>
<wgt id='1527'> +2.9862685e+11 </wgt>
<wgt id='1528'> +2.9834037e+11 </wgt>
<wgt id='1529'> +2.9841562e+11 </wgt>
<wgt id='1530'> +2.9469008e+11 </wgt>
<wgt id='1531'> +2.9627483e+11 </wgt>
<wgt id='1532'> +2.9390671e+11 </wgt>
<wgt id='1533'> +2.9165302e+11 </wgt>
<wgt id='1534'> +2.9467504e+11 </wgt>
<wgt id='1535'> +2.9865906e+11 </wgt>
<wgt id='1536'> +2.9369070e+11 </wgt>
<wgt id='1537'> +2.9620449e+11 </wgt>
<wgt id='1538'> +2.9313384e+11 </wgt>
<wgt id='1539'> +3.0223210e+11 </wgt>
<wgt id='1540'> +2.9561139e+11 </wgt>
<wgt id='1541'> +2.9679390e+11 </wgt>
<wgt id='1542'> +2.9624895e+11 </wgt>
<wgt id='1543'> +2.9748443e+11 </wgt>
<wgt id='1544'> +2.9436090e+11 </wgt>
<wgt id='1545'> +2.9428967e+11 </wgt>
<wgt id='1546'> +2.9233690e+11 </wgt>
<wgt id='1547'> +2.9858358e+11 </wgt>
<wgt id='1548'> +2.9435761e+11 </wgt>
<wgt id='1549'> +2.9281287e+11 </wgt>
<wgt id='1550'> +2.9712839e+11 </wgt>
<wgt id='1551'> +2.9686699e+11 </wgt>
<wgt id='1552'> +2.9572049e+11 </wgt>
<wgt id='1553'> +2.9840591e+11 </wgt>
<wgt id='1554'> +2.9615053e+11 </wgt>
<wgt id='1555'> +2.9693047e+11 </wgt>
<wgt id='1556'> +2.9867056e+11 </wgt>
<wgt id='1557'> +2.9516440e+11 </wgt>
<wgt id='1558'> +2.9633372e+11 </wgt>
<wgt id='1559'> +2.9413924e+11 </wgt>
<wgt id='1560'> +2.9502113e+11 </wgt>
<wgt id='1561'> +2.9273000e+11 </wgt>
<wgt id='1562'> +2.9491532e+11 </wgt>
<wgt id='1563'> +2.9628778e+11 </wgt>
<wgt id='1564'> +2.9583926e+11 </wgt>
<wgt id='1565'> +2.9836104e+11 </wgt>
<wgt id='1566'> +2.9628925e+11 </wgt>
<wgt id='1567'> +2.9969138e+11 </wgt>
<wgt id='1568'> +2.9620620e+11 </wgt>
<wgt id='1569'> +2.9590698e+11 </wgt>
<wgt id='1570'> +3.0246935e+11 </wgt>
<wgt id='1571'> +2.9610918e+11 </wgt>
<wgt id='1572'> +2.9824203e+11 </wgt>
<wgt id='1573'> +2.9949127e+11 </wgt>
<wgt id='1574'> +2.6660758e+11 </wgt>
<wgt id='1575'> +2.6667989e+11 </wgt>
<wgt id='1576'> +2.6653961e+11 </wgt>
<wgt id='1577'> +2.6662595e+11 </wgt>
<wgt id='1578'> +2.6721988e+11 </wgt>
<wgt id='1579'> +2.6746380e+11 </wgt>
<wgt id='1580'> +2.6723658e+11 </wgt>
<wgt id='1581'> +2.6599634e+11 </wgt>
<wgt id='1582'> +2.6569375e+11 </wgt>
<wgt id='1583'> +2.6615379e+11 </wgt>
<wgt id='1584'> +2.6719034e+11 </wgt>
<wgt id='1585'> +2.6680385e+11 </wgt>
<wgt id='1586'> +2.6560930e+11 </wgt>
<wgt id='1587'> +2.6585416e+11 </wgt>
<wgt id='1588'> +2.6535688e+11 </wgt>
<wgt id='1589'> +2.6634403e+11 </wgt>
<wgt id='1590'> +2.6642723e+11 </wgt>
<wgt id='1591'> +2.6667722e+11 </wgt>
<wgt id='1592'> +2.6557879e+11 </wgt>
<wgt id='1593'> +2.6570979e+11 </wgt>
<wgt id='1594'> +2.6745364e+11 </wgt>
<wgt id='1595'> +2.6432864e+11 </wgt>
<wgt id='1596'> +2.7028155e+11 </wgt>
<wgt id='1597'> +2.6835770e+11 </wgt>
<wgt id='1598'> +2.6856789e+11 </wgt>
<wgt id='1599'> +2.6382543e+11 </wgt>
<wgt id='1600'> +2.7109321e+11 </wgt>
<wgt id='1601'> +2.6874728e+11 </wgt>
<wgt id='1602'> +2.6666108e+11 </wgt>
<wgt id='1603'> +2.7758292e+11 </wgt>
<wgt id='1604'> +2.6658143e+11 </wgt>
</rwgt>
</event>
<event>
 9      1 +2.8343000e+11 1.40000000e+03 7.81738600e-03 7.88881200e-02
       21 -1    0    0  504  503 +0.0000000000e+00 +0.0000000000e+00 +3.1633867061e+02 3.1633867061e+02 0.0000000000e+00 0.0000e+00 -1.0000e+00
       21 -1    0    0  503  504 -0.0000000000e+00 -0.0000000000e+00 -1.5489717225e+03 1.5489717225e+03 0.0000000000e+00 0.0000e+00 -1.0000e+00
       45  2    1    2    0    0 -1.1368683772e-13 +0.0000000000e+00 -1.2326330519e+03 1.8653103931e+03 1.3999995079e+03 0.0000e+00 0.0000e+00
       25  2    3    3    0    0 +5.6942447560e+02 -3.2500590626e+02 -3.2595178036e+02 7.4279361950e+02 1.2499890213e+02 0.0000e+00 0.0000e+00
       35  2    3    3    0    0 -5.6942447560e+02 +3.2500590626e+02 -9.0668127151e+02 1.1225167736e+03 8.9999479899e+01 0.0000e+00 0.0000e+00
        5  1    5    5  501    0 -5.5148333579e+02 +3.2951297622e+02 -8.7378780445e+02 1.0845439392e+03 4.2140000000e+00 0.0000e+00 -1.0000e+00
       -5  1    5    5    0  501 -1.7941139803e+01 -4.5070699640e+00 -3.2893467061e+01 3.7972834348e+01 4.2140000000e+00 0.0000e+00 -1.0000e+00
        5  1    4    4  502    0 +2.8646613596e+02 -1.6987395272e+02 -2.3457294745e+02 4.0738462457e+02 4.2140000000e+00 0.0000e+00 1.0000e+00
       -5  1    4    4    0  502 +2.8295833964e+02 -1.5513195354e+02 -9.1378832912e+01 3.3540899493e+02 4.2140000000e+00 0.0000e+00 1.0000e+00
<mgrwt>
<rscale>  0 0.13999995E+04</rscale>
<asrwt>0</asrwt>
<pdfrwt beam="1">  1       21 0.48667488E-01 0.13999995E+04</pdfrwt>
<pdfrwt beam="2">  1       21 0.23830334E+00 0.13999995E+04</pdfrwt>
<totfact> 0.19907279E+02</totfact>
</mgrwt>
<rwgt>
<wgt id='1001'> +2.8343000e+11 </wgt>
<wgt id='1002'> +2.8636751e+11 </wgt>
<wgt id='1003'> +2.8635361e+11 </wgt>
<wgt id='1004'> +3.2323507e+11 </wgt>
<wgt id='1005'> +2.8343000e+11 </wgt>
<wgt id='1006'> +2.8343000e+11 </wgt>
<wgt id='1007'> +2.8636751e+11 </wgt>
<wgt id='1008'> +2.8635361e+11 </wgt>
<wgt id='1009'> +3.2323507e+11 </wgt>
<wgt id='1010'> +2.8343000e+11 </wgt>
<wgt id='1011'> +2.8343000e+11 </wgt>
<wgt id='1012'> +2.8636751e+11 </wgt>
<wgt id='1013'> +2.8635361e+11 </wgt>
<wgt id='1014'> +3.2323507e+11 </wgt>
<wgt id='1015'> +2.8343000e+11 </wgt>
<wgt id='1016'> +2.5314938e+11 </wgt>
<wgt id='1017'> +2.5561776e+11 </wgt>
<wgt id='1018'> +2.5560608e+11 </wgt>
<wgt id='1019'> +2.8635361e+11 </wgt>
<wgt id='1020'> +2.5314938e+11 </wgt>
<wgt id='1021'> +2.5314938e+11 </wgt>
<wgt id='1022'> +2.5561776e+11 </wgt>
<wgt id='1023'> +2.5560608e+11 </wgt>
<wgt id='1024'> +2.8635361e+11 </wgt>
<wgt id='1025'> +2.5314938e+11 </wgt>
<wgt id='1026'> +2.5314938e+11 </wgt>
<wgt id='1027'> +2.5561776e+11 </wgt>
<wgt id='1028'> +2.5560608e+11 </wgt>
<wgt id='1029'> +2.8635361e+11 </wgt>
<wgt id='1030'> +2.5314938e+11 </wgt>
<wgt id='1031'> +3.1971028e+11 </wgt>
<wgt id='1032'> +3.2325184e+11 </wgt>
<wgt id='1033'> +3.2323507e+11 </wgt>
<wgt id='1034'> +3.6792239e+11 </wgt>
<wgt id='1035'> +3.1971028e+11 </wgt>
<wgt id='1036'> +3.1971028e+11 </wgt>
<wgt id='1037'> +3.2325184e+11 </wgt>
<wgt id='1038'> +3.2323507e+11 </wgt>
<wgt id='1039'> +3.6792239e+11 </wgt>
<wgt id='1040'> +3.1971028e+11 </wgt>
<wgt id='1041'> +3.1971028e+11 </wgt>
<wgt id='1042'> +3.2325184e+11 </wgt>
<wgt id='1043'> +3.2323507e+11 </wgt>
<wgt id='1044'> +3.6792239e+11 </wgt>
<wgt id='1045'> +3.1971028e+11 </wgt>
<wgt id='1046'> +2.8343000e+11 </wgt>
<wgt id='1047'> +2.8343000e+11 </wgt>
<wgt id='1048'> +2.8343000e+11 </wgt>
<wgt id='1049'> +2.8306514e+11 </wgt>
<wgt id='1050'> +2.8309100e+11 </wgt>
<wgt id='1051'> +2.8354647e+11 </wgt>
<wgt id='1052'> +2.8394803e+11 </wgt>
<wgt id='1053'> +2.8146557e+11 </wgt>
<wgt id='1054'> +2.8410230e+11 </wgt>
<wgt id='1055'> +2.8200474e+11 </wgt>
<wgt id='1056'> +2.8176151e+11 </wgt>
<wgt id='1057'> +2.8228275e+11 </wgt>
<wgt id='1058'> +2.8247283e+11 </wgt>
<wgt id='1059'> +2.8580931e+11 </wgt>
<wgt id='1060'> +2.8357461e+11 </wgt>
<wgt id='1061'> +2.8410541e+11 </wgt>
<wgt id='1062'> +2.8428222e+11 </wgt>
<wgt id='1063'> +2.8474784e+11 </wgt>
<wgt id='1064'> +2.8424096e+11 </wgt>
<wgt id='1065'> +2.8509987e+11 </wgt>
<wgt id='1066'> +2.8187462e+11 </wgt>
<wgt id='1067'> +2.8243984e+11 </wgt>
<wgt id='1068'> +2.8416122e+11 </wgt>
<wgt id='1069'> +2.8245574e+11 </wgt>
<wgt id='1070'> +2.8407353e+11 </wgt>
<wgt id='1071'> +2.8291250e+11 </wgt>
<wgt id='1072'> +2.8417832e+11 </wgt>
<wgt id='1073'> +2.8190443e+11 </wgt>
<wgt id='1074'> +2.8221525e+11 </wgt>
<wgt id='1075'> +2.8307018e+11 </wgt>
<wgt id='1076'> +2.8225916e+11 </wgt>
<wgt id='1077'> +2.8194028e+11 </wgt>
<wgt id='1078'> +2.8365784e+11 </wgt>
<wgt id='1079'> +2.8239784e+11 </wgt>
<wgt id='1080'> +2.8270512e+11 </wgt>
<wgt id='1081'> +2.8316792e+11 </wgt>
<wgt id='1082'> +2.8282605e+11 </wgt>
<wgt id='1083'> +2.8446083e+11 </wgt>
<wgt id='1084'> +2.8402675e+11 </wgt>
<wgt id='1085'> +2.8239664e+11 </wgt>
<wgt id='1086'> +2.8412050e+11 </wgt>
<wgt id='1087'> +2.8361913e+11 </wgt>
<wgt id='1088'> +2.8269869e+11 </wgt>
<wgt id='1089'> +2.8250434e+11 </wgt>
<wgt id='1090'> +2.8425877e+11 </wgt>
<wgt id='1091'> +2.8367850e+11 </wgt>
<wgt id='1092'> +2.8364823e+11 </wgt>
<wgt id='1093'> +2.8339542e+11 </wgt>
<wgt id='1094'> +2.8196139e+11 </wgt>
<wgt id='1095'> +2.8376750e+11 </wgt>
<wgt id='1096'> +2.8340638e+11 </wgt>
<wgt id='1097'> +2.8274649e+11 </wgt>
<wgt id='1098'> +2.8310555e+11 </wgt>
<wgt id='1099'> +2.8326019e+11 </wgt>
<wgt id='1100'> +2.8397197e+11 </wgt>
<wgt id='1101'> +2.8339484e+11 </wgt>
<wgt id='1102'> +2.8326224e+11 </wgt>
<wgt id='1103'> +2.8242181e+11 </wgt>
<wgt id='1104'> +2.8350078e+11 </wgt>
<wgt id='1105'> +2.8353272e+11 </wgt>
<wgt id='1106'> +2.8388941e+11 </wgt>
<wgt id='1107'> +2.8378165e+11 </wgt>
<wgt id='1108'> +2.8317654e+11 </wgt>
<wgt id='1109'> +2.8332662e+11 </wgt>
<wgt id='1110'> +2.8361764e+11 </wgt>
<wgt id='1111'> +2.8387280e+11 </wgt>
<wgt id='1112'> +2.8327763e+11 </wgt>
<wgt id='1113'> +2.8381316e+11 </wgt>
<wgt id='1114'> +2.8312186e+11 </wgt>
<wgt id='1115'> +2.8276620e+11 </wgt>
<wgt id='1116'> +2.8429625e+11 </wgt>
<wgt id='1117'> +2.8333507e+11 </wgt>
<wgt id='1118'> +2.8389831e+11 </wgt>
<wgt id='1119'> +2.8290692e+11 </wgt>
<wgt id='1120'> +2.8285152e+11 </wgt>
<wgt id='1121'> +2.8348084e+11 </wgt>
<wgt id='1122'> +2.8293166e+11 </wgt>
<wgt id='1123'> +2.8336362e+11 </wgt>
<wgt id='1124'> +2.8356252e+11 </wgt>
<wgt id='1125'> +2.8361902e+11 </wgt>
<wgt id='1126'> +2.8357857e+11 </wgt>
<wgt id='1127'> +2.8331901e+11 </wgt>
<wgt id='1128'> +2.8331320e+11 </wgt>
<wgt id='1129'> +2.8319160e+11 </wgt>
<wgt id='1130'> +2.8345659e+11 </wgt>
<wgt id='1131'> +2.8409923e+11 </wgt>
<wgt id='1132'> +2.8327687e+11 </wgt>
<wgt id='1133'> +2.8362157e+11 </wgt>
<wgt id='1134'> +2.8338524e+11 </wgt>
<wgt id='1135'> +2.8347187e+11 </wgt>
<wgt id='1136'> +2.8324410e+11 </wgt>
<wgt id='1137'> +2.8315576e+11 </wgt>
<wgt id='1138'> +2.8359175e+11 </wgt>
<wgt id='1139'> +2.8360417e+11 </wgt>
<wgt id='1140'> +2.8374611e+11 </wgt>
<wgt id='1141'> +2.8309280e+11 </wgt>
<wgt id='1142'> +2.8349039e+11 </wgt>
<wgt id='1143'> +2.8366443e+11 </wgt>
<wgt id='1144'> +2.8332548e+11 </wgt>
<wgt id='1145'> +2.8362270e+11 </wgt>
<wgt id='1146'> +2.8355166e+11 </wgt>
<wgt id='1147'> +2.8350305e+11 </wgt>
<wgt id='1148'> +2.8343000e+11 </wgt>
<wgt id='1149'> +2.8343000e+11 </wgt>
<wgt id='1150'> +2.9293256e+11 </wgt>
<wgt id='1151'> +2.7662759e+11 </wgt>
<wgt id='1152'> +2.7091279e+11 </wgt>
<wgt id='1153'> +2.8555727e+11 </wgt>
<wgt id='1154'> +2.7706412e+11 </wgt>
<wgt id='1155'> +2.9860803e+11 </wgt>
<wgt id='1156'> +2.8270319e+11 </wgt>
<wgt id='1157'> +2.7797494e+11 </wgt>
<wgt id='1158'> +2.7744587e+11 </wgt>
<wgt id='1159'> +2.9199369e+11 </wgt>
<wgt id='1160'> +2.8321112e+11 </wgt>
<wgt id='1161'> +2.9597057e+11 </wgt>
<wgt id='1162'> +2.8706099e+11 </wgt>
<wgt id='1163'> +2.8806606e+11 </wgt>
<wgt id='1164'> +2.7433068e+11 </wgt>
<wgt id='1165'> +2.7506723e+11 </wgt>
<wgt id='1166'> +2.8375282e+11 </wgt>
<wgt id='1167'> +2.7931175e+11 </wgt>
<wgt id='1168'> +2.7215466e+11 </wgt>
<wgt id='1169'> +2.7629440e+11 </wgt>
<wgt id='1170'> +2.8461019e+11 </wgt>
<wgt id='1171'> +2.7426942e+11 </wgt>
<wgt id='1172'> +2.7179229e+11 </wgt>
<wgt id='1173'> +2.8740990e+11 </wgt>
<wgt id='1174'> +2.7784618e+11 </wgt>
<wgt id='1175'> +2.7891521e+11 </wgt>
<wgt id='1176'> +2.8854128e+11 </wgt>
<wgt id='1177'> +2.8183571e+11 </wgt>
<wgt id='1178'> +2.8650315e+11 </wgt>
<wgt id='1179'> +2.9081193e+11 </wgt>
<wgt id='1180'> +2.7589500e+11 </wgt>
<wgt id='1181'> +2.9233028e+11 </wgt>
<wgt id='1182'> +2.8268116e+11 </wgt>
<wgt id='1183'> +2.8928002e+11 </wgt>
<wgt id='1184'> +2.6736405e+11 </wgt>
<wgt id='1185'> +2.9133275e+11 </wgt>
<wgt id='1186'> +2.7898489e+11 </wgt>
<wgt id='1187'> +2.8791714e+11 </wgt>
<wgt id='1188'> +2.9379285e+11 </wgt>
<wgt id='1189'> +2.8368414e+11 </wgt>
<wgt id='1190'> +2.8053124e+11 </wgt>
<wgt id='1191'> +2.9267304e+11 </wgt>
<wgt id='1192'> +2.8728550e+11 </wgt>
<wgt id='1193'> +2.8788121e+11 </wgt>
<wgt id='1194'> +2.7621915e+11 </wgt>
<wgt id='1195'> +2.9006187e+11 </wgt>
<wgt id='1196'> +2.8933195e+11 </wgt>
<wgt id='1197'> +2.9074805e+11 </wgt>
<wgt id='1198'> +2.8607637e+11 </wgt>
<wgt id='1199'> +2.8446277e+11 </wgt>
<wgt id='1200'> +2.9320771e+11 </wgt>
<wgt id='1201'> +2.8478690e+11 </wgt>
<wgt id='1202'> +2.8329737e+11 </wgt>
<wgt id='1203'> +2.8747242e+11 </wgt>
<wgt id='1204'> +2.7851289e+11 </wgt>
<wgt id='1205'> +2.8757604e+11 </wgt>
<wgt id='1206'> +2.8113029e+11 </wgt>
<wgt id='1207'> +2.9304539e+11 </wgt>
<wgt id='1208'> +2.7310325e+11 </wgt>
<wgt id='1209'> +2.8576412e+11 </wgt>
<wgt id='1210'> +2.8640690e+11 </wgt>
<wgt id='1211'> +2.7863166e+11 </wgt>
<wgt id='1212'> +2.8169049e+11 </wgt>
<wgt id='1213'> +2.8399443e+11 </wgt>
<wgt id='1214'> +2.8034761e+11 </wgt>
<wgt id='1215'> +2.7797592e+11 </wgt>
<wgt id='1216'> +2.7104885e+11 </wgt>
<wgt id='1217'> +2.8387794e+11 </wgt>
<wgt id='1218'> +2.8441083e+11 </wgt>
<wgt id='1219'> +2.9236366e+11 </wgt>
<wgt id='1220'> +2.8119841e+11 </wgt>
<wgt id='1221'> +2.7566936e+11 </wgt>
<wgt id='1222'> +2.7938784e+11 </wgt>
<wgt id='1223'> +2.7468025e+11 </wgt>
<wgt id='1224'> +2.8183281e+11 </wgt>
<wgt id='1225'> +2.7770021e+11 </wgt>
<wgt id='1226'> +2.8492342e+11 </wgt>
<wgt id='1227'> +2.7948409e+11 </wgt>
<wgt id='1228'> +2.8154311e+11 </wgt>
<wgt id='1229'> +2.9851509e+11 </wgt>
<wgt id='1230'> +2.8677922e+11 </wgt>
<wgt id='1231'> +2.7506723e+11 </wgt>
<wgt id='1232'> +2.8950837e+11 </wgt>
<wgt id='1233'> +2.7770975e+11 </wgt>
<wgt id='1234'> +2.7858893e+11 </wgt>
<wgt id='1235'> +3.0252965e+11 </wgt>
<wgt id='1236'> +2.8199742e+11 </wgt>
<wgt id='1237'> +2.9289158e+11 </wgt>
<wgt id='1238'> +2.8171460e+11 </wgt>
<wgt id='1239'> +2.8825823e+11 </wgt>
<wgt id='1240'> +2.7403544e+11 </wgt>
<wgt id='1241'> +2.9105248e+11 </wgt>
<wgt id='1242'> +2.8202507e+11 </wgt>
<wgt id='1243'> +2.8226294e+11 </wgt>
<wgt id='1244'> +2.9276848e+11 </wgt>
<wgt id='1245'> +2.7069908e+11 </wgt>
<wgt id='1246'> +3.0340247e+11 </wgt>
<wgt id='1247'> +2.8153283e+11 </wgt>
<wgt id='1248'> +2.7443847e+11 </wgt>
<wgt id='1249'> +2.7565777e+11 </wgt>
<wgt id='1250'> +2.9591866e+11 </wgt>
<wgt id='1251'> +3.0636511e+11 </wgt>
<wgt id='1252'> +2.8928734e+11 </wgt>
<wgt id='1253'> +3.0192420e+11 </wgt>
<wgt id='1254'> +2.9234030e+11 </wgt>
<wgt id='1255'> +3.1078121e+11 </wgt>
<wgt id='1256'> +3.0843481e+11 </wgt>
<wgt id='1257'> +3.0287156e+11 </wgt>
<wgt id='1258'> +2.9210286e+11 </wgt>
<wgt id='1259'> +3.1602801e+11 </wgt>
<wgt id='1260'> +3.3624115e+11 </wgt>
<wgt id='1261'> +3.2116781e+11 </wgt>
<wgt id='1262'> +2.9988035e+11 </wgt>
<wgt id='1263'> +3.0422533e+11 </wgt>
<wgt id='1264'> +3.0511932e+11 </wgt>
<wgt id='1265'> +2.9051676e+11 </wgt>
<wgt id='1266'> +3.0822662e+11 </wgt>
<wgt id='1267'> +3.7032798e+11 </wgt>
<wgt id='1268'> +2.8752686e+11 </wgt>
<wgt id='1269'> +2.8663678e+11 </wgt>
<wgt id='1270'> +3.1526516e+11 </wgt>
<wgt id='1271'> +2.6087626e+11 </wgt>
<wgt id='1272'> +2.9747448e+11 </wgt>
<wgt id='1273'> +2.9268844e+11 </wgt>
<wgt id='1274'> +2.8997615e+11 </wgt>
<wgt id='1275'> +2.9162937e+11 </wgt>
<wgt id='1276'> +3.1161308e+11 </wgt>
<wgt id='1277'> +3.0811131e+11 </wgt>
<wgt id='1278'> +3.0581562e+11 </wgt>
<wgt id='1279'> +2.7890107e+11 </wgt>
<wgt id='1280'> +2.8934675e+11 </wgt>
<wgt id='1281'> +2.8652677e+11 </wgt>
<wgt id='1282'> +2.9454155e+11 </wgt>
<wgt id='1283'> +3.2299169e+11 </wgt>
<wgt id='1284'> +3.0383868e+11 </wgt>
<wgt id='1285'> +3.0748007e+11 </wgt>
<wgt id='1286'> +3.3880955e+11 </wgt>
<wgt id='1287'> +3.2820303e+11 </wgt>
<wgt id='1288'> +3.5295349e+11 </wgt>
<wgt id='1289'> +3.2253367e+11 </wgt>
<wgt id='1290'> +3.1575091e+11 </wgt>
<wgt id='1291'> +2.8116121e+11 </wgt>
<wgt id='1292'> +3.0918962e+11 </wgt>
<wgt id='1293'> +3.0573008e+11 </wgt>
<wgt id='1294'> +3.3912606e+11 </wgt>
<wgt id='1295'> +3.1559999e+11 </wgt>
<wgt id='1296'> +3.4627858e+11 </wgt>
<wgt id='1297'> +2.8670227e+11 </wgt>
<wgt id='1298'> +2.9281708e+11 </wgt>
<wgt id='1299'> +3.0889183e+11 </wgt>
<wgt id='1300'> +2.7215657e+11 </wgt>
<wgt id='1301'> +2.8079803e+11 </wgt>
<wgt id='1302'> +2.8065084e+11 </wgt>
<wgt id='1303'> +3.1029886e+11 </wgt>
<wgt id='1304'> +3.4348914e+11 </wgt>
<wgt id='1305'> +2.9818141e+11 </wgt>
<wgt id='1306'> +3.0772085e+11 </wgt>
<wgt id='1307'> +2.7845040e+11 </wgt>
<wgt id='1308'> +3.3758649e+11 </wgt>
<wgt id='1309'> +3.0768662e+11 </wgt>
<wgt id='1310'> +3.0703993e+11 </wgt>
<wgt id='1311'> +2.9315119e+11 </wgt>
<wgt id='1312'> +3.3245299e+11 </wgt>
<wgt id='1313'> +3.1281033e+11 </wgt>
<wgt id='1314'> +2.8637545e+11 </wgt>
<wgt id='1315'> +2.8879232e+11 </wgt>
<wgt id='1316'> +3.0120942e+11 </wgt>
<wgt id='1317'> +3.2783109e+11 </wgt>
<wgt id='1318'> +2.9286235e+11 </wgt>
<wgt id='1319'> +3.0156574e+11 </wgt>
<wgt id='1320'> +3.2473487e+11 </wgt>
<wgt id='1321'> +3.1145498e+11 </wgt>
<wgt id='1322'> +3.2525633e+11 </wgt>
<wgt id='1323'> +2.8025578e+11 </wgt>
<wgt id='1324'> +3.1833488e+11 </wgt>
<wgt id='1325'> +3.1666600e+11 </wgt>
<wgt id='1326'> +3.1451651e+11 </wgt>
<wgt id='1327'> +3.2567897e+11 </wgt>
<wgt id='1328'> +3.0490546e+11 </wgt>
<wgt id='1329'> +2.9739265e+11 </wgt>
<wgt id='1330'> +2.8145883e+11 </wgt>
<wgt id='1331'> +3.2833599e+11 </wgt>
<wgt id='1332'> +3.0906173e+11 </wgt>
<wgt id='1333'> +3.0391368e+11 </wgt>
<wgt id='1334'> +3.2798938e+11 </wgt>
<wgt id='1335'> +2.8893652e+11 </wgt>
<wgt id='1336'> +3.3094662e+11 </wgt>
<wgt id='1337'> +3.1203361e+11 </wgt>
<wgt id='1338'> +2.8523608e+11 </wgt>
<wgt id='1339'> +3.0895656e+11 </wgt>
<wgt id='1340'> +3.2393659e+11 </wgt>
<wgt id='1341'> +3.4795220e+11 </wgt>
<wgt id='1342'> +2.9422576e+11 </wgt>
<wgt id='1343'> +3.1070858e+11 </wgt>
<wgt id='1344'> +3.2714964e+11 </wgt>
<wgt id='1345'> +2.4965959e+11 </wgt>
<wgt id='1346'> +3.0822466e+11 </wgt>
<wgt id='1347'> +3.0070839e+11 </wgt>
<wgt id='1348'> +2.9278167e+11 </wgt>
<wgt id='1349'> +2.9174520e+11 </wgt>
<wgt id='1350'> +3.2407832e+11 </wgt>
<wgt id='1351'> +2.8901097e+11 </wgt>
<wgt id='1352'> +3.0844820e+11 </wgt>
<wgt id='1353'> +3.0708457e+11 </wgt>
<wgt id='1354'> +3.1531579e+11 </wgt>
<wgt id='1355'> +2.8287101e+11 </wgt>
<wgt id='1356'> +2.8529419e+11 </wgt>
<wgt id='1357'> +2.8443117e+11 </wgt>
<wgt id='1358'> +2.8152816e+11 </wgt>
<wgt id='1359'> +2.8072010e+11 </wgt>
<wgt id='1360'> +2.7837773e+11 </wgt>
<wgt id='1361'> +2.8106610e+11 </wgt>
<wgt id='1362'> +2.9231038e+11 </wgt>
<wgt id='1363'> +2.8310049e+11 </wgt>
<wgt id='1364'> +2.9129156e+11 </wgt>
<wgt id='1365'> +2.8070692e+11 </wgt>
<wgt id='1366'> +2.7905301e+11 </wgt>
<wgt id='1367'> +2.8013440e+11 </wgt>
<wgt id='1368'> +2.8476511e+11 </wgt>
<wgt id='1369'> +2.8645039e+11 </wgt>
<wgt id='1370'> +2.7668433e+11 </wgt>
<wgt id='1371'> +2.8172325e+11 </wgt>
<wgt id='1372'> +2.8050956e+11 </wgt>
<wgt id='1373'> +2.8743302e+11 </wgt>
<wgt id='1374'> +2.7874753e+11 </wgt>
<wgt id='1375'> +2.8504801e+11 </wgt>
<wgt id='1376'> +2.8214539e+11 </wgt>
<wgt id='1377'> +2.8248832e+11 </wgt>
<wgt id='1378'> +2.8625097e+11 </wgt>
<wgt id='1379'> +2.8085894e+11 </wgt>
<wgt id='1380'> +2.8030788e+11 </wgt>
<wgt id='1381'> +2.8653907e+11 </wgt>
<wgt id='1382'> +2.8029428e+11 </wgt>
<wgt id='1383'> +2.7924254e+11 </wgt>
<wgt id='1384'> +2.7614051e+11 </wgt>
<wgt id='1385'> +2.7669022e+11 </wgt>
<wgt id='1386'> +2.7894917e+11 </wgt>
<wgt id='1387'> +2.8147934e+11 </wgt>
<wgt id='1388'> +2.7884674e+11 </wgt>
<wgt id='1389'> +2.8003830e+11 </wgt>
<wgt id='1390'> +2.8645629e+11 </wgt>
<wgt id='1391'> +2.8447490e+11 </wgt>
<wgt id='1392'> +2.7648996e+11 </wgt>
<wgt id='1393'> +2.8587458e+11 </wgt>
<wgt id='1394'> +2.8367365e+11 </wgt>
<wgt id='1395'> +2.7675112e+11 </wgt>
<wgt id='1396'> +2.8306035e+11 </wgt>
<wgt id='1397'> +2.8271293e+11 </wgt>
<wgt id='1398'> +2.8968173e+11 </wgt>
<wgt id='1399'> +2.8122515e+11 </wgt>
<wgt id='1400'> +2.7654485e+11 </wgt>
<wgt id='1401'> +2.8326369e+11 </wgt>
<wgt id='1402'> +2.8487737e+11 </wgt>
<wgt id='1403'> +2.9477801e+11 </wgt>
<wgt id='1404'> +2.8777533e+11 </wgt>
<wgt id='1405'> +2.9221540e+11 </wgt>
<wgt id='1406'> +2.8827562e+11 </wgt>
<wgt id='1407'> +2.8559263e+11 </wgt>
<wgt id='1408'> +2.9329680e+11 </wgt>
<wgt id='1409'> +2.7626075e+11 </wgt>
<wgt id='1410'> +2.7488314e+11 </wgt>
<wgt id='1411'> +2.8252445e+11 </wgt>
<wgt id='1412'> +2.8456485e+11 </wgt>
<wgt id='1413'> +2.8901727e+11 </wgt>
<wgt id='1414'> +2.8545910e+11 </wgt>
<wgt id='1415'> +2.7894404e+11 </wgt>
<wgt id='1416'> +2.8300281e+11 </wgt>
<wgt id='1417'> +2.8090747e+11 </wgt>
<wgt id='1418'> +2.8078305e+11 </wgt>
<wgt id='1419'> +2.8549146e+11 </wgt>
<wgt id='1420'> +2.7410059e+11 </wgt>
<wgt id='1421'> +2.9062315e+11 </wgt>
<wgt id='1422'> +2.7450912e+11 </wgt>
<wgt id='1423'> +2.8562217e+11 </wgt>
<wgt id='1424'> +2.8183544e+11 </wgt>
<wgt id='1425'> +2.8257035e+11 </wgt>
<wgt id='1426'> +2.8606366e+11 </wgt>
<wgt id='1427'> +2.8014024e+11 </wgt>
<wgt id='1428'> +2.7963296e+11 </wgt>
<wgt id='1429'> +2.8427730e+11 </wgt>
<wgt id='1430'> +2.7965121e+11 </wgt>
<wgt id='1431'> +2.8178289e+11 </wgt>
<wgt id='1432'> +2.7655451e+11 </wgt>
<wgt id='1433'> +2.7563251e+11 </wgt>
<wgt id='1434'> +2.8818020e+11 </wgt>
<wgt id='1435'> +2.8305608e+11 </wgt>
<wgt id='1436'> +2.8686877e+11 </wgt>
<wgt id='1437'> +2.8043331e+11 </wgt>
<wgt id='1438'> +2.8276839e+11 </wgt>
<wgt id='1439'> +2.9166162e+11 </wgt>
<wgt id='1440'> +2.8233856e+11 </wgt>
<wgt id='1441'> +2.7811886e+11 </wgt>
<wgt id='1442'> +2.8386689e+11 </wgt>
<wgt id='1443'> +2.7776546e+11 </wgt>
<wgt id='1444'> +2.9186174e+11 </wgt>
<wgt id='1445'> +2.8017787e+11 </wgt>
<wgt id='1446'> +2.9401195e+11 </wgt>
<wgt id='1447'> +2.8457953e+11 </wgt>
<wgt id='1448'> +2.8580900e+11 </wgt>
<wgt id='1449'> +2.8563216e+11 </wgt>
<wgt id='1450'> +2.8156930e+11 </wgt>
<wgt id='1451'> +2.8132959e+11 </wgt>
<wgt id='1452'> +2.8542465e+11 </wgt>
<wgt id='1453'> +2.8583762e+11 </wgt>
<wgt id='1454'> +2.7325778e+11 </wgt>
<wgt id='1455'> +2.8114934e+11 </wgt>
<wgt id='1456'> +2.8064913e+11 </wgt>
<wgt id='1457'> +2.8332674e+11 </wgt>
<wgt id='1458'> +2.9134221e+11 </wgt>
<wgt id='1459'> +3.1520407e+11 </wgt>
<wgt id='1460'> +3.0965143e+11 </wgt>
<wgt id='1461'> +3.7436268e+11 </wgt>
<wgt id='1462'> +3.0443558e+11 </wgt>
<wgt id='1463'> +3.0464943e+11 </wgt>
<wgt id='1464'> +3.0416135e+11 </wgt>
<wgt id='1465'> +3.0450602e+11 </wgt>
<wgt id='1466'> +3.0437126e+11 </wgt>
<wgt id='1467'> +3.0453475e+11 </wgt>
<wgt id='1468'> +3.0427288e+11 </wgt>
<wgt id='1469'> +3.0400431e+11 </wgt>
<wgt id='1470'> +3.0478583e+11 </wgt>
<wgt id='1471'> +3.0487911e+11 </wgt>
<wgt id='1472'> +3.0397873e+11 </wgt>
<wgt id='1473'> +3.0566309e+11 </wgt>
<wgt id='1474'> +3.0325654e+11 </wgt>
<wgt id='1475'> +3.0559273e+11 </wgt>
<wgt id='1476'> +3.0361542e+11 </wgt>
<wgt id='1477'> +3.0389132e+11 </wgt>
<wgt id='1478'> +3.0570735e+11 </wgt>
<wgt id='1479'> +3.0418260e+11 </wgt>
<wgt id='1480'> +3.0461879e+11 </wgt>
<wgt id='1481'> +3.0379480e+11 </wgt>
<wgt id='1482'> +3.0530376e+11 </wgt>
<wgt id='1483'> +3.0447499e+11 </wgt>
<wgt id='1484'> +3.0438569e+11 </wgt>
<wgt id='1485'> +3.0464228e+11 </wgt>
<wgt id='1486'> +3.0393762e+11 </wgt>
<wgt id='1487'> +3.0472246e+11 </wgt>
<wgt id='1488'> +3.0407677e+11 </wgt>
<wgt id='1489'> +3.0404702e+11 </wgt>
<wgt id='1490'> +3.0548956e+11 </wgt>
<wgt id='1491'> +3.0961041e+11 </wgt>
<wgt id='1492'> +3.0155398e+11 </wgt>
<wgt id='1493'> +3.0065714e+11 </wgt>
<wgt id='1494'> +3.1628803e+11 </wgt>
<wgt id='1495'> +3.0350519e+11 </wgt>
<wgt id='1496'> +3.0543535e+11 </wgt>
<wgt id='1497'> +3.0466116e+11 </wgt>
<wgt id='1498'> +3.0412793e+11 </wgt>
<wgt id='1499'> +3.0667601e+11 </wgt>
<wgt id='1500'> +3.0321357e+11 </wgt>
<wgt id='1501'> +3.0470053e+11 </wgt>
<wgt id='1502'> +3.0374720e+11 </wgt>
<wgt id='1503'> +2.9947818e+11 </wgt>
<wgt id='1504'> +3.1007164e+11 </wgt>
<wgt id='1505'> +3.0496448e+11 </wgt>
<wgt id='1506'> +3.0390975e+11 </wgt>
<wgt id='1507'> +3.0870903e+11 </wgt>
<wgt id='1508'> +2.9711025e+11 </wgt>
<wgt id='1509'> +3.0532711e+11 </wgt>
<wgt id='1510'> +3.0058402e+11 </wgt>
<wgt id='1511'> +3.0568304e+11 </wgt>
<wgt id='1512'> +3.0411312e+11 </wgt>
<wgt id='1513'> +3.0419561e+11 </wgt>
<wgt id='1514'> +3.0472030e+11 </wgt>
<wgt id='1515'> +3.0894719e+11 </wgt>
<wgt id='1516'> +3.0352554e+11 </wgt>
<wgt id='1517'> +3.0381214e+11 </wgt>
<wgt id='1518'> +3.0539947e+11 </wgt>
<wgt id='1519'> +3.0227589e+11 </wgt>
<wgt id='1520'> +3.0596300e+11 </wgt>
<wgt id='1521'> +3.0298135e+11 </wgt>
<wgt id='1522'> +3.0524364e+11 </wgt>
<wgt id='1523'> +3.0563460e+11 </wgt>
<wgt id='1524'> +3.0620018e+11 </wgt>
<wgt id='1525'> +3.0496959e+11 </wgt>
<wgt id='1526'> +3.0621513e+11 </wgt>
<wgt id='1527'> +3.0443558e+11 </wgt>
<wgt id='1528'> +3.0279467e+11 </wgt>
<wgt id='1529'> +3.0590624e+11 </wgt>
<wgt id='1530'> +2.9922035e+11 </wgt>
<wgt id='1531'> +3.1006458e+11 </wgt>
<wgt id='1532'> +3.1050086e+11 </wgt>
<wgt id='1533'> +3.0411615e+11 </wgt>
<wgt id='1534'> +3.0820219e+11 </wgt>
<wgt id='1535'> +3.1368195e+11 </wgt>
<wgt id='1536'> +3.0625061e+11 </wgt>
<wgt id='1537'> +3.1276551e+11 </wgt>
<wgt id='1538'> +3.0558118e+11 </wgt>
<wgt id='1539'> +3.1510068e+11 </wgt>
<wgt id='1540'> +3.1203477e+11 </wgt>
<wgt id='1541'> +3.1217087e+11 </wgt>
<wgt id='1542'> +3.1039619e+11 </wgt>
<wgt id='1543'> +3.1229422e+11 </wgt>
<wgt id='1544'> +3.0836996e+11 </wgt>
<wgt id='1545'> +3.0806762e+11 </wgt>
<wgt id='1546'> +3.0636322e+11 </wgt>
<wgt id='1547'> +3.1231531e+11 </wgt>
<wgt id='1548'> +3.0913166e+11 </wgt>
<wgt id='1549'> +3.0646007e+11 </wgt>
<wgt id='1550'> +3.1276613e+11 </wgt>
<wgt id='1551'> +3.1068456e+11 </wgt>
<wgt id='1552'> +3.1039784e+11 </wgt>
<wgt id='1553'> +3.1659348e+11 </wgt>
<wgt id='1554'> +3.1049929e+11 </wgt>
<wgt id='1555'> +3.1114269e+11 </wgt>
<wgt id='1556'> +3.1203995e+11 </wgt>
<wgt id='1557'> +3.0984032e+11 </wgt>
<wgt id='1558'> +3.1042634e+11 </wgt>
<wgt id='1559'> +3.0742946e+11 </wgt>
<wgt id='1560'> +3.0922184e+11 </wgt>
<wgt id='1561'> +3.0852207e+11 </wgt>
<wgt id='1562'> +3.0787444e+11 </wgt>
<wgt id='1563'> +3.1041207e+11 </wgt>
<wgt id='1564'> +3.0979731e+11 </wgt>
<wgt id='1565'> +3.1360711e+11 </wgt>
<wgt id='1566'> +3.1005305e+11 </wgt>
<wgt id='1567'> +3.1015110e+11 </wgt>
<wgt id='1568'> +3.0988663e+11 </wgt>
<wgt id='1569'> +3.0933843e+11 </wgt>
<wgt id='1570'> +3.1723873e+11 </wgt>
<wgt id='1571'> +3.1014496e+11 </wgt>
<wgt id='1572'> +3.1134485e+11 </wgt>
<wgt id='1573'> +3.1515157e+11 </wgt>
<wgt id='1574'> +2.5126495e+11 </wgt>
<wgt id='1575'> +2.5132974e+11 </wgt>
<wgt id='1576'> +2.5119576e+11 </wgt>
<wgt id='1577'> +2.5128280e+11 </wgt>
<wgt id='1578'> +2.5184407e+11 </wgt>
<wgt id='1579'> +2.5203361e+11 </wgt>
<wgt id='1580'> +2.5179678e+11 </wgt>
<wgt id='1581'> +2.5085197e+11 </wgt>
<wgt id='1582'> +2.5059814e+11 </wgt>
<wgt id='1583'> +2.5078712e+11 </wgt>
<wgt id='1584'> +2.5182795e+11 </wgt>
<wgt id='1585'> +2.5154877e+11 </wgt>
<wgt id='1586'> +2.5055027e+11 </wgt>
<wgt id='1587'> +2.5066101e+11 </wgt>
<wgt id='1588'> +2.5024062e+11 </wgt>
<wgt id='1589'> +2.5090981e+11 </wgt>
<wgt id='1590'> +2.5112234e+11 </wgt>
<wgt id='1591'> +2.5134807e+11 </wgt>
<wgt id='1592'> +2.5031120e+11 </wgt>
<wgt id='1593'> +2.5009039e+11 </wgt>
<wgt id='1594'> +2.5242047e+11 </wgt>
<wgt id='1595'> +2.4862352e+11 </wgt>
<wgt id='1596'> +2.5576041e+11 </wgt>
<wgt id='1597'> +2.5310017e+11 </wgt>
<wgt id='1598'> +2.5317959e+11 </wgt>
<wgt id='1599'> +2.4814700e+11 </wgt>
<wgt id='1600'> +2.5635379e+11 </wgt>
<wgt id='1601'> +2.5342952e+11 </wgt>
<wgt id='1602'> +2.5135371e+11 </wgt>
<wgt id='1603'> +2.6659722e+11 </wgt>
<wgt id='1604'> +2.5136740e+11 </wgt>
</rwgt>
</event>
<event>
 9      1 +2.8343000e+11 1.40000000e+03 7.81738600e-03 7.88881200e-02
       21 -1    0    0  504  503 +0.0000000000e+00 +0.0000000000e+00 +1.0662675777e+03 1.0662675777e+03 0.0000000000e+00 0.0000e+00 1.0000e+00
       21 -1    0    0  503  504 -0.0000000000e+00 -0.0000000000e+00 -4.5954667976e+02 4.5954667976e+02 0.0000000000e+00 0.0000e+00 1.0000e+00
       45  2    1    2    0    0 -1.1368683772e-13 +0.0000000000e+00 +6.0672089791e+02 1.5258142574e+03 1.3999996072e+03 0.0000e+00 0.0000e+00
       25  2    3    3    0    0 +5.5113757353e+02 +3.9900718809e+02 +1.7022327443e+02 7.1243265351e+02 1.2499984610e+02 0.0000e+00 0.0000e+00
       35  2    3    3    0    0 -5.5113757353e+02 -3.9900718809e+02 +4.3649762348e+02 8.1338160393e+02 9.0000540031e+01 0.0000e+00 0.0000e+00
        5  1    5    5  501    0 -3.1515398998e+02 -1.8261748079e+02 +2.6215209446e+02 4.4879021838e+02 4.2140000000e+00 0.0000e+00 -1.0000e+00
       -5  1    5    5    0  501 -2.3598358355e+02 -2.1638970730e+02 +1.7434552902e+02 3.6459138555e+02 4.2140000000e+00 0.0000e+00 -1.0000e+00
        5  1    4    4  502    0 -4.8220519811e+00 +1.0941894496e+01 +8.9002221033e+00 1.5490286955e+01 4.2140000000e+00 0.0000e+00 -1.0000e+00
       -5  1    4    4    0  502 +5.5595962551e+02 +3.8806529359e+02 +1.6132305233e+02 6.9694236655e+02 4.2140000000e+00 0.0000e+00 -1.0000e+00
<mgrwt>
<rscale>  0 0.13999996E+04</rscale>
<asrwt>0</asrwt>
<pdfrwt beam="1">  1       21 0.16404117E+00 0.13999996E+04</pdfrwt>
<pdfrwt beam="2">  1       21 0.70699489E-01 0.13999996E+04</pdfrwt>
<totfact> 0.30792735E+02</totfact>
</mgrwt>
<rwgt>
<wgt id='1001'> +2.8343000e+11 </wgt>
<wgt id='1002'> +2.8425999e+11 </wgt>
<wgt id='1003'> +2.8425104e+11 </wgt>
<wgt id='1004'> +3.1931773e+11 </wgt>
<wgt id='1005'> +2.8343000e+11 </wgt>
<wgt id='1006'> +2.8343000e+11 </wgt>
<wgt id='1007'> +2.8425999e+11 </wgt>
<wgt id='1008'> +2.8425104e+11 </wgt>
<wgt id='1009'> +3.1931773e+11 </wgt>
<wgt id='1010'> +2.8343000e+11 </wgt>
<wgt id='1011'> +2.8343000e+11 </wgt>
<wgt id='1012'> +2.8425999e+11 </wgt>
<wgt id='1013'> +2.8425104e+11 </wgt>
<wgt id='1014'> +3.1931773e+11 </wgt>
<wgt id='1015'> +2.8343000e+11 </wgt>
<wgt id='1016'> +2.5420235e+11 </wgt>
<wgt id='1017'> +2.5490412e+11 </wgt>
<wgt id='1018'> +2.5489656e+11 </wgt>
<wgt id='1019'> +2.8425104e+11 </wgt>
<wgt id='1020'> +2.5420235e+11 </wgt>
<wgt id='1021'> +2.5420235e+11 </wgt>
<wgt id='1022'> +2.5490412e+11 </wgt>
<wgt id='1023'> +2.5489656e+11 </wgt>
<wgt id='1024'> +2.8425104e+11 </wgt>
<wgt id='1025'> +2.5420235e+11 </wgt>
<wgt id='1026'> +2.5420235e+11 </wgt>
<wgt id='1027'> +2.5490412e+11 </wgt>
<wgt id='1028'> +2.5489656e+11 </wgt>
<wgt id='1029'> +2.8425104e+11 </wgt>
<wgt id='1030'> +2.5420235e+11 </wgt>
<wgt id='1031'> +3.1833087e+11 </wgt>
<wgt id='1032'> +3.1932848e+11 </wgt>
<wgt id='1033'> +3.1931773e+11 </wgt>
<wgt id='1034'> +3.6156420e+11 </wgt>
<wgt id='1035'> +3.1833087e+11 </wgt>
<wgt id='1036'> +3.1833087e+11 </wgt>
<wgt id='1037'> +3.1932848e+11 </wgt>
<wgt id='1038'> +3.1931773e+11 </wgt>
<wgt id='1039'> +3.6156420e+11 </wgt>
<wgt id='1040'> +3.1833087e+11 </wgt>
<wgt id='1041'> +3.1833087e+11 </wgt>
<wgt id='1042'> +3.1932848e+11 </wgt>
<wgt id='1043'> +3.1931773e+11 </wgt>
<wgt id='1044'> +3.6156420e+11 </wgt>
<wgt id='1045'> +3.1833087e+11 </wgt>
<wgt id='1046'> +2.8343000e+11 </wgt>
<wgt id='1047'> +2.8343000e+11 </wgt>
<wgt id='1048'> +2.8343000e+11 </wgt>
<wgt id='1049'> +2.8272156e+11 </wgt>
<wgt id='1050'> +2.8323984e+11 </wgt>
<wgt id='1051'> +2.8330388e+11 </wgt>
<wgt id='1052'> +2.8435206e+11 </wgt>
<wgt id='1053'> +2.8171997e+11 </wgt>
<wgt id='1054'> +2.8372752e+11 </wgt>
<wgt id='1055'> +2.8223783e+11 </wgt>
<wgt id='1056'> +2.8208397e+11 </wgt>
<wgt id='1057'> +2.8368414e+11 </wgt>
<wgt id='1058'> +2.8287282e+11 </wgt>
<wgt id='1059'> +2.8521492e+11 </wgt>
<wgt id='1060'> +2.8378009e+11 </wgt>
<wgt id='1061'> +2.8398025e+11 </wgt>
<wgt id='1062'> +2.8423061e+11 </wgt>
<wgt id='1063'> +2.8434489e+11 </wgt>
<wgt id='1064'> +2.8414123e+11 </wgt>
<wgt id='1065'> +2.8467822e+11 </wgt>
<wgt id='1066'> +2.8134196e+11 </wgt>
<wgt id='1067'> +2.8127730e+11 </wgt>
<wgt id='1068'> +2.8331911e+11 </wgt>
<wgt id='1069'> +2.8257679e+11 </wgt>
<wgt id='1070'> +2.8386012e+11 </wgt>
<wgt id='1071'> +2.8347167e+11 </wgt>
<wgt id='1072'> +2.8196647e+11 </wgt>
<wgt id='1073'> +2.8353416e+11 </wgt>
<wgt id='1074'> +2.8329428e+11 </wgt>
<wgt id='1075'> +2.8447928e+11 </wgt>
<wgt id='1076'> +2.8172704e+11 </wgt>
<wgt id='1077'> +2.8215388e+11 </wgt>
<wgt id='1078'> +2.8409544e+11 </wgt>
<wgt id='1079'> +2.8215530e+11 </wgt>
<wgt id='1080'> +2.8315965e+11 </wgt>
<wgt id='1081'> +2.8293977e+11 </wgt>
<wgt id='1082'> +2.8219296e+11 </wgt>
<wgt id='1083'> +2.8385499e+11 </wgt>
<wgt id='1084'> +2.8392333e+11 </wgt>
<wgt id='1085'> +2.8274640e+11 </wgt>
<wgt id='1086'> +2.8310871e+11 </wgt>
<wgt id='1087'> +2.8314018e+11 </wgt>
<wgt id='1088'> +2.8293556e+11 </wgt>
<wgt id='1089'> +2.8264988e+11 </wgt>
<wgt id='1090'> +2.8411801e+11 </wgt>
<wgt id='1091'> +2.8351935e+11 </wgt>
<wgt id='1092'> +2.8376068e+11 </wgt>
<wgt id='1093'> +2.8335779e+11 </wgt>
<wgt id='1094'> +2.8272697e+11 </wgt>
<wgt id='1095'> +2.8362382e+11 </wgt>
<wgt id='1096'> +2.8340725e+11 </wgt>
<wgt id='1097'> +2.8299624e+11 </wgt>
<wgt id='1098'> +2.8310243e+11 </wgt>
<wgt id='1099'> +2.8316580e+11 </wgt>
<wgt id='1100'> +2.8404310e+11 </wgt>
<wgt id='1101'> +2.8346136e+11 </wgt>
<wgt id='1102'> +2.8331351e+11 </wgt>
<wgt id='1103'> +2.8296562e+11 </wgt>
<wgt id='1104'> +2.8317804e+11 </wgt>
<wgt id='1105'> +2.8353330e+11 </wgt>
<wgt id='1106'> +2.8376189e+11 </wgt>
<wgt id='1107'> +2.8345068e+11 </wgt>
<wgt id='1108'> +2.8327805e+11 </wgt>
<wgt id='1109'> +2.8322181e+11 </wgt>
<wgt id='1110'> +2.8372830e+11 </wgt>
<wgt id='1111'> +2.8357572e+11 </wgt>
<wgt id='1112'> +2.8338448e+11 </wgt>
<wgt id='1113'> +2.8375715e+11 </wgt>
<wgt id='1114'> +2.8312109e+11 </wgt>
<wgt id='1115'> +2.8314330e+11 </wgt>
<wgt id='1116'> +2.8388223e+11 </wgt>
<wgt id='1117'> +2.8336152e+11 </wgt>
<wgt id='1118'> +2.8359963e+11 </wgt>
<wgt id='1119'> +2.8316166e+11 </wgt>
<wgt id='1120'> +2.8321686e+11 </wgt>
<wgt id='1121'> +2.8351102e+11 </wgt>
<wgt id='1122'> +2.8317887e+11 </wgt>
<wgt id='1123'> +2.8337318e+11 </wgt>
<wgt id='1124'> +2.8339911e+11 </wgt>
<wgt id='1125'> +2.8360522e+11 </wgt>
<wgt id='1126'> +2.8354169e+11 </wgt>
<wgt id='1127'> +2.8330386e+11 </wgt>
<wgt id='1128'> +2.8343296e+11 </wgt>
<wgt id='1129'> +2.8334122e+11 </wgt>
<wgt id='1130'> +2.8346571e+11 </wgt>
<wgt id='1131'> +2.8380000e+11 </wgt>
<wgt id='1132'> +2.8334798e+11 </wgt>
<wgt id='1133'> +2.8353456e+11 </wgt>
<wgt id='1134'> +2.8342192e+11 </wgt>
<wgt id='1135'> +2.8346663e+11 </wgt>
<wgt id='1136'> +2.8336561e+11 </wgt>
<wgt id='1137'> +2.8325575e+11 </wgt>
<wgt id='1138'> +2.8355981e+11 </wgt>
<wgt id='1139'> +2.8348949e+11 </wgt>
<wgt id='1140'> +2.8365974e+11 </wgt>
<wgt id='1141'> +2.8325262e+11 </wgt>
<wgt id='1142'> +2.8349304e+11 </wgt>
<wgt id='1143'> +2.8360194e+11 </wgt>
<wgt id='1144'> +2.8333181e+11 </wgt>
<wgt id='1145'> +2.8356790e+11 </wgt>
<wgt id='1146'> +2.8344990e+11 </wgt>
<wgt id='1147'> +2.8348307e+11 </wgt>
<wgt id='1148'> +2.8343000e+11 </wgt>
<wgt id='1149'> +2.8343000e+11 </wgt>
<wgt id='1150'> +2.9662894e+11 </wgt>
<wgt id='1151'> +2.7820896e+11 </wgt>
<wgt id='1152'> +2.7886118e+11 </wgt>
<wgt id='1153'> +2.8628615e+11 </wgt>
<wgt id='1154'> +2.8356224e+11 </wgt>
<wgt id='1155'> +2.9184657e+11 </wgt>
<wgt id='1156'> +2.7739589e+11 </wgt>
<wgt id='1157'> +2.7465583e+11 </wgt>
<wgt id='1158'> +2.7711752e+11 </wgt>
<wgt id='1159'> +2.9979210e+11 </wgt>
<wgt id='1160'> +2.8442275e+11 </wgt>
<wgt id='1161'> +2.8673253e+11 </wgt>
<wgt id='1162'> +2.8322986e+11 </wgt>
<wgt id='1163'> +2.8624315e+11 </wgt>
<wgt id='1164'> +2.7190506e+11 </wgt>
<wgt id='1165'> +2.7773962e+11 </wgt>
<wgt id='1166'> +2.8339764e+11 </wgt>
<wgt id='1167'> +2.7823196e+11 </wgt>
<wgt id='1168'> +2.7489795e+11 </wgt>
<wgt id='1169'> +2.7572521e+11 </wgt>
<wgt id='1170'> +2.8282286e+11 </wgt>
<wgt id='1171'> +2.7289420e+11 </wgt>
<wgt id='1172'> +2.7542580e+11 </wgt>
<wgt id='1173'> +2.8579162e+11 </wgt>
<wgt id='1174'> +2.7735976e+11 </wgt>
<wgt id='1175'> +2.7760429e+11 </wgt>
<wgt id='1176'> +2.8649910e+11 </wgt>
<wgt id='1177'> +2.7808920e+11 </wgt>
<wgt id='1178'> +2.8347870e+11 </wgt>
<wgt id='1179'> +2.8220063e+11 </wgt>
<wgt id='1180'> +2.9036083e+11 </wgt>
<wgt id='1181'> +2.8569618e+11 </wgt>
<wgt id='1182'> +2.8014368e+11 </wgt>
<wgt id='1183'> +2.9114994e+11 </wgt>
<wgt id='1184'> +2.8305085e+11 </wgt>
<wgt id='1185'> +2.8657506e+11 </wgt>
<wgt id='1186'> +2.7612769e+11 </wgt>
<wgt id='1187'> +2.8434315e+11 </wgt>
<wgt id='1188'> +2.8593476e+11 </wgt>
<wgt id='1189'> +2.8261720e+11 </wgt>
<wgt id='1190'> +2.8163782e+11 </wgt>
<wgt id='1191'> +2.9148310e+11 </wgt>
<wgt id='1192'> +2.8934549e+11 </wgt>
<wgt id='1193'> +2.9189873e+11 </wgt>
<wgt id='1194'> +2.8145233e+11 </wgt>
<wgt id='1195'> +2.8411046e+11 </wgt>
<wgt id='1196'> +2.9168015e+11 </wgt>
<wgt id='1197'> +2.9156070e+11 </wgt>
<wgt id='1198'> +2.8282150e+11 </wgt>
<wgt id='1199'> +2.8730892e+11 </wgt>
<wgt id='1200'> +2.8620116e+11 </wgt>
<wgt id='1201'> +2.8024608e+11 </wgt>
<wgt id='1202'> +2.8690765e+11 </wgt>
<wgt id='1203'> +2.8051933e+11 </wgt>
<wgt id='1204'> +2.8380265e+11 </wgt>
<wgt id='1205'> +2.8377314e+11 </wgt>
<wgt id='1206'> +2.7897473e+11 </wgt>
<wgt id='1207'> +2.9140131e+11 </wgt>
<wgt id='1208'> +2.7091464e+11 </wgt>
<wgt id='1209'> +2.8228788e+11 </wgt>
<wgt id='1210'> +2.8475627e+11 </wgt>
<wgt id='1211'> +2.8501585e+11 </wgt>
<wgt id='1212'> +2.8309802e+11 </wgt>
<wgt id='1213'> +2.8988017e+11 </wgt>
<wgt id='1214'> +2.7697143e+11 </wgt>
<wgt id='1215'> +2.8624541e+11 </wgt>
<wgt id='1216'> +2.8275770e+11 </wgt>
<wgt id='1217'> +2.7726558e+11 </wgt>
<wgt id='1218'> +2.8480868e+11 </wgt>
<wgt id='1219'> +2.9369775e+11 </wgt>
<wgt id='1220'> +2.7898493e+11 </wgt>
<wgt id='1221'> +2.7632090e+11 </wgt>
<wgt id='1222'> +2.7889338e+11 </wgt>
<wgt id='1223'> +2.7305351e+11 </wgt>
<wgt id='1224'> +2.8296532e+11 </wgt>
<wgt id='1225'> +2.8803105e+11 </wgt>
<wgt id='1226'> +2.8739756e+11 </wgt>
<wgt id='1227'> +2.7845970e+11 </wgt>
<wgt id='1228'> +2.8200690e+11 </wgt>
<wgt id='1229'> +3.0152781e+11 </wgt>
<wgt id='1230'> +2.9071603e+11 </wgt>
<wgt id='1231'> +2.7773962e+11 </wgt>
<wgt id='1232'> +2.8751446e+11 </wgt>
<wgt id='1233'> +2.7665981e+11 </wgt>
<wgt id='1234'> +2.7707585e+11 </wgt>
<wgt id='1235'> +3.0016500e+11 </wgt>
<wgt id='1236'> +2.7723588e+11 </wgt>
<wgt id='1237'> +2.8905956e+11 </wgt>
<wgt id='1238'> +2.8397006e+11 </wgt>
<wgt id='1239'> +2.8742071e+11 </wgt>
<wgt id='1240'> +2.8003668e+11 </wgt>
<wgt id='1241'> +2.8460919e+11 </wgt>
<wgt id='1242'> +2.8001046e+11 </wgt>
<wgt id='1243'> +2.8632215e+11 </wgt>
<wgt id='1244'> +2.8540181e+11 </wgt>
<wgt id='1245'> +2.7952904e+11 </wgt>
<wgt id='1246'> +3.0510573e+11 </wgt>
<wgt id='1247'> +2.8181917e+11 </wgt>
<wgt id='1248'> +2.7354423e+11 </wgt>
<wgt id='1249'> +2.7604212e+11 </wgt>
<wgt id='1250'> +2.9281713e+11 </wgt>
<wgt id='1251'> +3.0063593e+11 </wgt>
<wgt id='1252'> +2.8822872e+11 </wgt>
<wgt id='1253'> +2.8879416e+11 </wgt>
<wgt id='1254'> +2.8918807e+11 </wgt>
<wgt id='1255'> +3.0118447e+11 </wgt>
<wgt id='1256'> +3.0107754e+11 </wgt>
<wgt id='1257'> +2.9573869e+11 </wgt>
<wgt id='1258'> +2.9600060e+11 </wgt>
<wgt id='1259'> +2.9959345e+11 </wgt>
<wgt id='1260'> +3.2657909e+11 </wgt>
<wgt id='1261'> +3.1443851e+11 </wgt>
<wgt id='1262'> +2.9238111e+11 </wgt>
<wgt id='1263'> +2.9856211e+11 </wgt>
<wgt id='1264'> +3.0132700e+11 </wgt>
<wgt id='1265'> +2.9647793e+11 </wgt>
<wgt id='1266'> +3.0053172e+11 </wgt>
<wgt id='1267'> +3.3290307e+11 </wgt>
<wgt id='1268'> +2.9186092e+11 </wgt>
<wgt id='1269'> +2.8743580e+11 </wgt>
<wgt id='1270'> +2.9925947e+11 </wgt>
<wgt id='1271'> +2.7262723e+11 </wgt>
<wgt id='1272'> +2.9353638e+11 </wgt>
<wgt id='1273'> +2.9141003e+11 </wgt>
<wgt id='1274'> +2.8703155e+11 </wgt>
<wgt id='1275'> +2.9645013e+11 </wgt>
<wgt id='1276'> +2.9978994e+11 </wgt>
<wgt id='1277'> +2.9487575e+11 </wgt>
<wgt id='1278'> +2.9506957e+11 </wgt>
<wgt id='1279'> +2.8065341e+11 </wgt>
<wgt id='1280'> +2.8876090e+11 </wgt>
<wgt id='1281'> +2.8559940e+11 </wgt>
<wgt id='1282'> +2.9626755e+11 </wgt>
<wgt id='1283'> +3.0355894e+11 </wgt>
<wgt id='1284'> +3.1195918e+11 </wgt>
<wgt id='1285'> +3.0863052e+11 </wgt>
<wgt id='1286'> +3.2970420e+11 </wgt>
<wgt id='1287'> +3.0557117e+11 </wgt>
<wgt id='1288'> +3.2915513e+11 </wgt>
<wgt id='1289'> +3.1397771e+11 </wgt>
<wgt id='1290'> +3.1239844e+11 </wgt>
<wgt id='1291'> +2.7851226e+11 </wgt>
<wgt id='1292'> +3.0083088e+11 </wgt>
<wgt id='1293'> +3.0251422e+11 </wgt>
<wgt id='1294'> +3.1904438e+11 </wgt>
<wgt id='1295'> +3.0635894e+11 </wgt>
<wgt id='1296'> +3.2267090e+11 </wgt>
<wgt id='1297'> +2.9353769e+11 </wgt>
<wgt id='1298'> +2.8835931e+11 </wgt>
<wgt id='1299'> +3.0204765e+11 </wgt>
<wgt id='1300'> +2.8745872e+11 </wgt>
<wgt id='1301'> +2.7987158e+11 </wgt>
<wgt id='1302'> +2.8169306e+11 </wgt>
<wgt id='1303'> +3.0130599e+11 </wgt>
<wgt id='1304'> +3.1674021e+11 </wgt>
<wgt id='1305'> +2.9894851e+11 </wgt>
<wgt id='1306'> +3.0617185e+11 </wgt>
<wgt id='1307'> +2.9590141e+11 </wgt>
<wgt id='1308'> +3.2854501e+11 </wgt>
<wgt id='1309'> +2.9876366e+11 </wgt>
<wgt id='1310'> +3.0316023e+11 </wgt>
<wgt id='1311'> +3.0327348e+11 </wgt>
<wgt id='1312'> +3.0607066e+11 </wgt>
<wgt id='1313'> +3.0069937e+11 </wgt>
<wgt id='1314'> +2.9941065e+11 </wgt>
<wgt id='1315'> +2.8701528e+11 </wgt>
<wgt id='1316'> +2.9985959e+11 </wgt>
<wgt id='1317'> +3.0649716e+11 </wgt>
<wgt id='1318'> +2.9056467e+11 </wgt>
<wgt id='1319'> +3.0106987e+11 </wgt>
<wgt id='1320'> +3.1389224e+11 </wgt>
<wgt id='1321'> +2.9778596e+11 </wgt>
<wgt id='1322'> +3.0271534e+11 </wgt>
<wgt id='1323'> +2.9456489e+11 </wgt>
<wgt id='1324'> +3.0467892e+11 </wgt>
<wgt id='1325'> +3.1217654e+11 </wgt>
<wgt id='1326'> +3.0706962e+11 </wgt>
<wgt id='1327'> +3.0465297e+11 </wgt>
<wgt id='1328'> +2.9913639e+11 </wgt>
<wgt id='1329'> +2.9838704e+11 </wgt>
<wgt id='1330'> +2.8819188e+11 </wgt>
<wgt id='1331'> +3.2154033e+11 </wgt>
<wgt id='1332'> +2.9200363e+11 </wgt>
<wgt id='1333'> +3.0206261e+11 </wgt>
<wgt id='1334'> +3.1571384e+11 </wgt>
<wgt id='1335'> +2.9336191e+11 </wgt>
<wgt id='1336'> +3.0983653e+11 </wgt>
<wgt id='1337'> +3.0916979e+11 </wgt>
<wgt id='1338'> +2.8908354e+11 </wgt>
<wgt id='1339'> +3.1811718e+11 </wgt>
<wgt id='1340'> +3.0473907e+11 </wgt>
<wgt id='1341'> +3.1392773e+11 </wgt>
<wgt id='1342'> +3.0914411e+11 </wgt>
<wgt id='1343'> +3.0980664e+11 </wgt>
<wgt id='1344'> +3.1150467e+11 </wgt>
<wgt id='1345'> +2.7197324e+11 </wgt>
<wgt id='1346'> +3.0264901e+11 </wgt>
<wgt id='1347'> +2.9004071e+11 </wgt>
<wgt id='1348'> +2.8975642e+11 </wgt>
<wgt id='1349'> +2.8822344e+11 </wgt>
<wgt id='1350'> +3.0491114e+11 </wgt>
<wgt id='1351'> +2.9419446e+11 </wgt>
<wgt id='1352'> +3.0269650e+11 </wgt>
<wgt id='1353'> +2.9938973e+11 </wgt>
<wgt id='1354'> +3.0870842e+11 </wgt>
<wgt id='1355'> +2.7647829e+11 </wgt>
<wgt id='1356'> +2.7916534e+11 </wgt>
<wgt id='1357'> +2.7689536e+11 </wgt>
<wgt id='1358'> +2.7443815e+11 </wgt>
<wgt id='1359'> +2.7655111e+11 </wgt>
<wgt id='1360'> +2.7087720e+11 </wgt>
<wgt id='1361'> +2.7579558e+11 </wgt>
<wgt id='1362'> +2.8152876e+11 </wgt>
<wgt id='1363'> +2.7241704e+11 </wgt>
<wgt id='1364'> +2.8162749e+11 </wgt>
<wgt id='1365'> +2.7427005e+11 </wgt>
<wgt id='1366'> +2.7429256e+11 </wgt>
<wgt id='1367'> +2.7690947e+11 </wgt>
<wgt id='1368'> +2.7676773e+11 </wgt>
<wgt id='1369'> +2.7967832e+11 </wgt>
<wgt id='1370'> +2.7428473e+11 </wgt>
<wgt id='1371'> +2.7607477e+11 </wgt>
<wgt id='1372'> +2.7950086e+11 </wgt>
<wgt id='1373'> +2.7975721e+11 </wgt>
<wgt id='1374'> +2.6868039e+11 </wgt>
<wgt id='1375'> +2.7670923e+11 </wgt>
<wgt id='1376'> +2.7628928e+11 </wgt>
<wgt id='1377'> +2.7699045e+11 </wgt>
<wgt id='1378'> +2.7444801e+11 </wgt>
<wgt id='1379'> +2.7495791e+11 </wgt>
<wgt id='1380'> +2.7425768e+11 </wgt>
<wgt id='1381'> +2.8143299e+11 </wgt>
<wgt id='1382'> +2.7572343e+11 </wgt>
<wgt id='1383'> +2.7501984e+11 </wgt>
<wgt id='1384'> +2.7367927e+11 </wgt>
<wgt id='1385'> +2.7332123e+11 </wgt>
<wgt id='1386'> +2.7643513e+11 </wgt>
<wgt id='1387'> +2.7496605e+11 </wgt>
<wgt id='1388'> +2.7207614e+11 </wgt>
<wgt id='1389'> +2.7534674e+11 </wgt>
<wgt id='1390'> +2.7731943e+11 </wgt>
<wgt id='1391'> +2.7449264e+11 </wgt>
<wgt id='1392'> +2.7386806e+11 </wgt>
<wgt id='1393'> +2.7601711e+11 </wgt>
<wgt id='1394'> +2.7472637e+11 </wgt>
<wgt id='1395'> +2.7184524e+11 </wgt>
<wgt id='1396'> +2.7712859e+11 </wgt>
<wgt id='1397'> +2.7726110e+11 </wgt>
<wgt id='1398'> +2.7813611e+11 </wgt>
<wgt id='1399'> +2.7336202e+11 </wgt>
<wgt id='1400'> +2.7248151e+11 </wgt>
<wgt id='1401'> +2.7638574e+11 </wgt>
<wgt id='1402'> +2.7935810e+11 </wgt>
<wgt id='1403'> +2.8199527e+11 </wgt>
<wgt id='1404'> +2.7707775e+11 </wgt>
<wgt id='1405'> +2.8279168e+11 </wgt>
<wgt id='1406'> +2.7766315e+11 </wgt>
<wgt id='1407'> +2.7685732e+11 </wgt>
<wgt id='1408'> +2.8103080e+11 </wgt>
<wgt id='1409'> +2.7318723e+11 </wgt>
<wgt id='1410'> +2.7114202e+11 </wgt>
<wgt id='1411'> +2.7619713e+11 </wgt>
<wgt id='1412'> +2.7476158e+11 </wgt>
<wgt id='1413'> +2.7483235e+11 </wgt>
<wgt id='1414'> +2.7880645e+11 </wgt>
<wgt id='1415'> +2.8009053e+11 </wgt>
<wgt id='1416'> +2.7887708e+11 </wgt>
<wgt id='1417'> +2.7197690e+11 </wgt>
<wgt id='1418'> +2.7697343e+11 </wgt>
<wgt id='1419'> +2.8023765e+11 </wgt>
<wgt id='1420'> +2.7468019e+11 </wgt>
<wgt id='1421'> +2.8263085e+11 </wgt>
<wgt id='1422'> +2.6953788e+11 </wgt>
<wgt id='1423'> +2.8135683e+11 </wgt>
<wgt id='1424'> +2.7763157e+11 </wgt>
<wgt id='1425'> +2.7704071e+11 </wgt>
<wgt id='1426'> +2.7898183e+11 </wgt>
<wgt id='1427'> +2.7602173e+11 </wgt>
<wgt id='1428'> +2.7588068e+11 </wgt>
<wgt id='1429'> +2.7501031e+11 </wgt>
<wgt id='1430'> +2.7240088e+11 </wgt>
<wgt id='1431'> +2.7148887e+11 </wgt>
<wgt id='1432'> +2.7638961e+11 </wgt>
<wgt id='1433'> +2.7514292e+11 </wgt>
<wgt id='1434'> +2.8387136e+11 </wgt>
<wgt id='1435'> +2.7544816e+11 </wgt>
<wgt id='1436'> +2.8025111e+11 </wgt>
<wgt id='1437'> +2.7726053e+11 </wgt>
<wgt id='1438'> +2.7542487e+11 </wgt>
<wgt id='1439'> +2.7954985e+11 </wgt>
<wgt id='1440'> +2.7956358e+11 </wgt>
<wgt id='1441'> +2.7455418e+11 </wgt>
<wgt id='1442'> +2.8206616e+11 </wgt>
<wgt id='1443'> +2.7415735e+11 </wgt>
<wgt id='1444'> +2.7766517e+11 </wgt>
<wgt id='1445'> +2.7797041e+11 </wgt>
<wgt id='1446'> +2.8108695e+11 </wgt>
<wgt id='1447'> +2.7374922e+11 </wgt>
<wgt id='1448'> +2.7890996e+11 </wgt>
<wgt id='1449'> +2.7895243e+11 </wgt>
<wgt id='1450'> +2.7549464e+11 </wgt>
<wgt id='1451'> +2.7782677e+11 </wgt>
<wgt id='1452'> +2.7887294e+11 </wgt>
<wgt id='1453'> +2.7889913e+11 </wgt>
<wgt id='1454'> +2.6897064e+11 </wgt>
<wgt id='1455'> +2.7540496e+11 </wgt>
<wgt id='1456'> +2.7551370e+11 </wgt>
<wgt id='1457'> +2.7545086e+11 </wgt>
<wgt id='1458'> +2.8017531e+11 </wgt>
<wgt id='1459'> +3.0802181e+11 </wgt>
<wgt id='1460'> +3.0317608e+11 </wgt>
<wgt id='1461'> +3.5547555e+11 </wgt>
<wgt id='1462'> +2.9910797e+11 </wgt>
<wgt id='1463'> +2.9934386e+11 </wgt>
<wgt id='1464'> +2.9880544e+11 </wgt>
<wgt id='1465'> +2.9917184e+11 </wgt>
<wgt id='1466'> +2.9904962e+11 </wgt>
<wgt id='1467'> +2.9924861e+11 </wgt>
<wgt id='1468'> +2.9887721e+11 </wgt>
<wgt id='1469'> +2.9866786e+11 </wgt>
<wgt id='1470'> +2.9946542e+11 </wgt>
<wgt id='1471'> +2.9957121e+11 </wgt>
<wgt id='1472'> +2.9863085e+11 </wgt>
<wgt id='1473'> +3.0027515e+11 </wgt>
<wgt id='1474'> +2.9798690e+11 </wgt>
<wgt id='1475'> +3.0021771e+11 </wgt>
<wgt id='1476'> +2.9832123e+11 </wgt>
<wgt id='1477'> +2.9854848e+11 </wgt>
<wgt id='1478'> +3.0041501e+11 </wgt>
<wgt id='1479'> +2.9863917e+11 </wgt>
<wgt id='1480'> +2.9943721e+11 </wgt>
<wgt id='1481'> +2.9864359e+11 </wgt>
<wgt id='1482'> +2.9973493e+11 </wgt>
<wgt id='1483'> +2.9919263e+11 </wgt>
<wgt id='1484'> +2.9898880e+11 </wgt>
<wgt id='1485'> +2.9931503e+11 </wgt>
<wgt id='1486'> +2.9860935e+11 </wgt>
<wgt id='1487'> +2.9937476e+11 </wgt>
<wgt id='1488'> +2.9877402e+11 </wgt>
<wgt id='1489'> +2.9874821e+11 </wgt>
<wgt id='1490'> +3.0008344e+11 </wgt>
<wgt id='1491'> +3.0404393e+11 </wgt>
<wgt id='1492'> +2.9635516e+11 </wgt>
<wgt id='1493'> +2.9555533e+11 </wgt>
<wgt id='1494'> +3.1024677e+11 </wgt>
<wgt id='1495'> +2.9840487e+11 </wgt>
<wgt id='1496'> +2.9986249e+11 </wgt>
<wgt id='1497'> +2.9930756e+11 </wgt>
<wgt id='1498'> +2.9883521e+11 </wgt>
<wgt id='1499'> +3.0104440e+11 </wgt>
<wgt id='1500'> +2.9804936e+11 </wgt>
<wgt id='1501'> +2.9953912e+11 </wgt>
<wgt id='1502'> +2.9796655e+11 </wgt>
<wgt id='1503'> +2.9564542e+11 </wgt>
<wgt id='1504'> +3.0285529e+11 </wgt>
<wgt id='1505'> +3.0001393e+11 </wgt>
<wgt id='1506'> +2.9822809e+11 </wgt>
<wgt id='1507'> +3.0107977e+11 </wgt>
<wgt id='1508'> +2.9686397e+11 </wgt>
<wgt id='1509'> +2.9975029e+11 </wgt>
<wgt id='1510'> +2.9634683e+11 </wgt>
<wgt id='1511'> +3.0026800e+11 </wgt>
<wgt id='1512'> +2.9875880e+11 </wgt>
<wgt id='1513'> +2.9900671e+11 </wgt>
<wgt id='1514'> +2.9921868e+11 </wgt>
<wgt id='1515'> +3.0193537e+11 </wgt>
<wgt id='1516'> +2.9928674e+11 </wgt>
<wgt id='1517'> +2.9868967e+11 </wgt>
<wgt id='1518'> +2.9953804e+11 </wgt>
<wgt id='1519'> +2.9735911e+11 </wgt>
<wgt id='1520'> +3.0035044e+11 </wgt>
<wgt id='1521'> +2.9818989e+11 </wgt>
<wgt id='1522'> +2.9964410e+11 </wgt>
<wgt id='1523'> +3.0038629e+11 </wgt>
<wgt id='1524'> +3.0057622e+11 </wgt>
<wgt id='1525'> +3.0016397e+11 </wgt>
<wgt id='1526'> +3.0012364e+11 </wgt>
<wgt id='1527'> +2.9910797e+11 </wgt>
<wgt id='1528'> +2.9863699e+11 </wgt>
<wgt id='1529'> +2.9912879e+11 </wgt>
<wgt id='1530'> +2.9531213e+11 </wgt>
<wgt id='1531'> +2.9803983e+11 </wgt>
<wgt id='1532'> +2.9604753e+11 </wgt>
<wgt id='1533'> +2.9318733e+11 </wgt>
<wgt id='1534'> +2.9648208e+11 </wgt>
<wgt id='1535'> +3.0062742e+11 </wgt>
<wgt id='1536'> +2.9536868e+11 </wgt>
<wgt id='1537'> +2.9832392e+11 </wgt>
<wgt id='1538'> +2.9474026e+11 </wgt>
<wgt id='1539'> +3.0371976e+11 </wgt>
<wgt id='1540'> +2.9783989e+11 </wgt>
<wgt id='1541'> +2.9891577e+11 </wgt>
<wgt id='1542'> +2.9805856e+11 </wgt>
<wgt id='1543'> +2.9939842e+11 </wgt>
<wgt id='1544'> +2.9619251e+11 </wgt>
<wgt id='1545'> +2.9603035e+11 </wgt>
<wgt id='1546'> +2.9411310e+11 </wgt>
<wgt id='1547'> +3.0035985e+11 </wgt>
<wgt id='1548'> +2.9631044e+11 </wgt>
<wgt id='1549'> +2.9455123e+11 </wgt>
<wgt id='1550'> +2.9920741e+11 </wgt>
<wgt id='1551'> +2.9862957e+11 </wgt>
<wgt id='1552'> +2.9767738e+11 </wgt>
<wgt id='1553'> +3.0069593e+11 </wgt>
<wgt id='1554'> +2.9798485e+11 </wgt>
<wgt id='1555'> +2.9878046e+11 </wgt>
<wgt id='1556'> +3.0035933e+11 </wgt>
<wgt id='1557'> +2.9712396e+11 </wgt>
<wgt id='1558'> +2.9820496e+11 </wgt>
<wgt id='1559'> +2.9573487e+11 </wgt>
<wgt id='1560'> +2.9677117e+11 </wgt>
<wgt id='1561'> +2.9493662e+11 </wgt>
<wgt id='1562'> +2.9663497e+11 </wgt>
<wgt id='1563'> +2.9814333e+11 </wgt>
<wgt id='1564'> +2.9762016e+11 </wgt>
<wgt id='1565'> +3.0024244e+11 </wgt>
<wgt id='1566'> +2.9802010e+11 </wgt>
<wgt id='1567'> +3.0109147e+11 </wgt>
<wgt id='1568'> +2.9794890e+11 </wgt>
<wgt id='1569'> +2.9762565e+11 </wgt>
<wgt id='1570'> +3.0479624e+11 </wgt>
<wgt id='1571'> +2.9794827e+11 </wgt>
<wgt id='1572'> +3.0008563e+11 </wgt>
<wgt id='1573'> +3.0148827e+11 </wgt>
<wgt id='1574'> +2.5989340e+11 </wgt>
<wgt id='1575'> +2.5996324e+11 </wgt>
<wgt id='1576'> +2.5982554e+11 </wgt>
<wgt id='1577'> +2.5991150e+11 </wgt>
<wgt id='1578'> +2.6049264e+11 </wgt>
<wgt id='1579'> +2.6073105e+11 </wgt>
<wgt id='1580'> +2.6050058e+11 </wgt>
<wgt id='1581'> +2.5932633e+11 </wgt>
<wgt id='1582'> +2.5903577e+11 </wgt>
<wgt id='1583'> +2.5944802e+11 </wgt>
<wgt id='1584'> +2.6046426e+11 </wgt>
<wgt id='1585'> +2.6010272e+11 </wgt>
<wgt id='1586'> +2.5895886e+11 </wgt>
<wgt id='1587'> +2.5917109e+11 </wgt>
<wgt id='1588'> +2.5869356e+11 </wgt>
<wgt id='1589'> +2.5961692e+11 </wgt>
<wgt id='1590'> +2.5972269e+11 </wgt>
<wgt id='1591'> +2.5996658e+11 </wgt>
<wgt id='1592'> +2.5888378e+11 </wgt>
<wgt id='1593'> +2.5893740e+11 </wgt>
<wgt id='1594'> +2.6080462e+11 </wgt>
<wgt id='1595'> +2.5753836e+11 </wgt>
<wgt id='1596'> +2.6374582e+11 </wgt>
<wgt id='1597'> +2.6166509e+11 </wgt>
<wgt id='1598'> +2.6185049e+11 </wgt>
<wgt id='1599'> +2.5704088e+11 </wgt>
<wgt id='1600'> +2.6451595e+11 </wgt>
<wgt id='1601'> +2.6204175e+11 </wgt>
<wgt id='1602'> +2.5993783e+11 </wgt>
<wgt id='1603'> +2.7173985e+11 </wgt>
<wgt id='1604'> +2.6001830e+11 </wgt>
</rwgt>
</event>
<event>
 9      1 +2.8343000e+11 1.40000000e+03 7.81738600e-03 7.88881100e-02
       21 -1    0    0  504  503 +0.0000000000e+00 +0.0000000000e+00 +2.1056157709e+02 2.1056157709e+02 0.0000000000e+00 0.0000e+00 1.0000e+00
       21 -1    0    0  503  504 -0.0000000000e+00 -0.0000000000e+00 -2.3271116345e+03 2.3271116345e+03 0.0000000000e+00 0.0000e+00 1.0000e+00
       45  2    1    2    0    0 -1.7053025658e-13 -5.6843418861e-14 -2.1165500574e+03 2.5376732115e+03 1.4000004226e+03 0.0000e+00 0.0000e+00
       25  2    3    3    0    0 +5.0780418306e+02 +4.1193002221e+02 -6.5462424321e+02 9.3365374547e+02 1.2499994036e+02 0.0000e+00 0.0000e+00
       35  2    3    3    0    0 -5.0780418306e+02 -4.1193002221e+02 -1.4619258142e+03 1.6040194661e+03 8.9999610571e+01 0.0000e+00 0.0000e+00
        5  1    5    5  501    0 +1.2069759345e+00 -6.0986245160e-01 -4.0860518094e+00 6.0234822574e+00 4.2140000000e+00 0.0000e+00 1.0000e+00
       -5  1    5    5    0  501 -5.0901115900e+02 -4.1132015976e+02 -1.4578397623e+03 1.5979959838e+03 4.2140000000e+00 0.0000e+00 1.0000e+00
        5  1    4    4  502    0 +5.0495830201e+02 +3.8763855703e+02 -6.4703904509e+02 9.0770249605e+02 4.2140000000e+00 0.0000e+00 -1.0000e+00
       -5  1    4    4    0  502 +2.8458810478e+00 +2.4291465188e+01 -7.5851981251e+00 2.5951249422e+01 4.2140000000e+00 0.0000e+00 -1.0000e+00
<mgrwt>
<rscale>  0 0.14000004E+04</rscale>
<asrwt>0</asrwt>
<pdfrwt beam="1">  1       21 0.32394088E-01 0.14000004E+04</pdfrwt>
<pdfrwt beam="2">  1       21 0.35801719E+00 0.14000004E+04</pdfrwt>
<totfact> 0.79303805E+01</totfact>
</mgrwt>
<rwgt>
<wgt id='1001'> +2.8343000e+11 </wgt>
<wgt id='1002'> +2.8668942e+11 </wgt>
<wgt id='1003'> +2.8658320e+11 </wgt>
<wgt id='1004'> +3.2820903e+11 </wgt>
<wgt id='1005'> +2.8343000e+11 </wgt>
<wgt id='1006'> +2.8343000e+11 </wgt>
<wgt id='1007'> +2.8668942e+11 </wgt>
<wgt id='1008'> +2.8658320e+11 </wgt>
<wgt id='1009'> +3.2820903e+11 </wgt>
<wgt id='1010'> +2.8343000e+11 </wgt>
<wgt id='1011'> +2.8343000e+11 </wgt>
<wgt id='1012'> +2.8668942e+11 </wgt>
<wgt id='1013'> +2.8658320e+11 </wgt>
<wgt id='1014'> +3.2820903e+11 </wgt>
<wgt id='1015'> +2.8343000e+11 </wgt>
<wgt id='1016'> +2.4976516e+11 </wgt>
<wgt id='1017'> +2.5246098e+11 </wgt>
<wgt id='1018'> +2.5237315e+11 </wgt>
<wgt id='1019'> +2.8658320e+11 </wgt>
<wgt id='1020'> +2.4976516e+11 </wgt>
<wgt id='1021'> +2.4976516e+11 </wgt>
<wgt id='1022'> +2.5246098e+11 </wgt>
<wgt id='1023'> +2.5237315e+11 </wgt>
<wgt id='1024'> +2.8658320e+11 </wgt>
<wgt id='1025'> +2.4976516e+11 </wgt>
<wgt id='1026'> +2.4976516e+11 </wgt>
<wgt id='1027'> +2.5246098e+11 </wgt>
<wgt id='1028'> +2.5237315e+11 </wgt>
<wgt id='1029'> +2.8658320e+11 </wgt>
<wgt id='1030'> +2.4976516e+11 </wgt>
<wgt id='1031'> +3.2435350e+11 </wgt>
<wgt id='1032'> +3.2833899e+11 </wgt>
<wgt id='1033'> +3.2820903e+11 </wgt>
<wgt id='1034'> +3.7945365e+11 </wgt>
<wgt id='1035'> +3.2435350e+11 </wgt>
<wgt id='1036'> +3.2435350e+11 </wgt>
<wgt id='1037'> +3.2833899e+11 </wgt>
<wgt id='1038'> +3.2820903e+11 </wgt>
<wgt id='1039'> +3.7945365e+11 </wgt>
<wgt id='1040'> +3.2435350e+11 </wgt>
<wgt id='1041'> +3.2435350e+11 </wgt>
<wgt id='1042'> +3.2833899e+11 </wgt>
<wgt id='1043'> +3.2820903e+11 </wgt>
<wgt id='1044'> +3.7945365e+11 </wgt>
<wgt id='1045'> +3.2435350e+11 </wgt>
<wgt id='1046'> +2.8343000e+11 </wgt>
<wgt id='1047'> +2.8343000e+11 </wgt>
<wgt id='1048'> +2.8343000e+11 </wgt>
<wgt id='1049'> +2.8318082e+11 </wgt>
<wgt id='1050'> +2.8135091e+11 </wgt>
<wgt id='1051'> +2.8336425e+11 </wgt>
<wgt id='1052'> +2.8333666e+11 </wgt>
<wgt id='1053'> +2.8193611e+11 </wgt>
<wgt id='1054'> +2.8693377e+11 </wgt>
<wgt id='1055'> +2.8184765e+11 </wgt>
<wgt id='1056'> +2.8103381e+11 </wgt>
<wgt id='1057'> +2.8323836e+11 </wgt>
<wgt id='1058'> +2.8441687e+11 </wgt>
<wgt id='1059'> +2.8529300e+11 </wgt>
<wgt id='1060'> +2.8215171e+11 </wgt>
<wgt id='1061'> +2.8481778e+11 </wgt>
<wgt id='1062'> +2.8628246e+11 </wgt>
<wgt id='1063'> +2.8441663e+11 </wgt>
<wgt id='1064'> +2.8657966e+11 </wgt>
<wgt id='1065'> +2.8529205e+11 </wgt>
<wgt id='1066'> +2.8309389e+11 </wgt>
<wgt id='1067'> +2.8286368e+11 </wgt>
<wgt id='1068'> +2.8482220e+11 </wgt>
<wgt id='1069'> +2.8172167e+11 </wgt>
<wgt id='1070'> +2.8030118e+11 </wgt>
<wgt id='1071'> +2.8667532e+11 </wgt>
<wgt id='1072'> +2.7687735e+11 </wgt>
<wgt id='1073'> +2.8549848e+11 </wgt>
<wgt id='1074'> +2.8476075e+11 </wgt>
<wgt id='1075'> +2.8052148e+11 </wgt>
<wgt id='1076'> +2.8543388e+11 </wgt>
<wgt id='1077'> +2.7982963e+11 </wgt>
<wgt id='1078'> +2.7748080e+11 </wgt>
<wgt id='1079'> +2.8454938e+11 </wgt>
<wgt id='1080'> +2.8564522e+11 </wgt>
<wgt id='1081'> +2.8378299e+11 </wgt>
<wgt id='1082'> +2.8203210e+11 </wgt>
<wgt id='1083'> +2.8317667e+11 </wgt>
<wgt id='1084'> +2.8496841e+11 </wgt>
<wgt id='1085'> +2.8209089e+11 </wgt>
<wgt id='1086'> +2.8597047e+11 </wgt>
<wgt id='1087'> +2.8485771e+11 </wgt>
<wgt id='1088'> +2.8349059e+11 </wgt>
<wgt id='1089'> +2.8251995e+11 </wgt>
<wgt id='1090'> +2.8454181e+11 </wgt>
<wgt id='1091'> +2.8372437e+11 </wgt>
<wgt id='1092'> +2.8304407e+11 </wgt>
<wgt id='1093'> +2.8249758e+11 </wgt>
<wgt id='1094'> +2.8079888e+11 </wgt>
<wgt id='1095'> +2.8367032e+11 </wgt>
<wgt id='1096'> +2.8424384e+11 </wgt>
<wgt id='1097'> +2.8282161e+11 </wgt>
<wgt id='1098'> +2.8390173e+11 </wgt>
<wgt id='1099'> +2.8412709e+11 </wgt>
<wgt id='1100'> +2.8349218e+11 </wgt>
<wgt id='1101'> +2.8369286e+11 </wgt>
<wgt id='1102'> +2.8323688e+11 </wgt>
<wgt id='1103'> +2.8067427e+11 </wgt>
<wgt id='1104'> +2.8395573e+11 </wgt>
<wgt id='1105'> +2.8392181e+11 </wgt>
<wgt id='1106'> +2.8405156e+11 </wgt>
<wgt id='1107'> +2.8432807e+11 </wgt>
<wgt id='1108'> +2.8313027e+11 </wgt>
<wgt id='1109'> +2.8405546e+11 </wgt>
<wgt id='1110'> +2.8318948e+11 </wgt>
<wgt id='1111'> +2.8541912e+11 </wgt>
<wgt id='1112'> +2.8269782e+11 </wgt>
<wgt id='1113'> +2.8359524e+11 </wgt>
<wgt id='1114'> +2.8308759e+11 </wgt>
<wgt id='1115'> +2.8127865e+11 </wgt>
<wgt id='1116'> +2.8501188e+11 </wgt>
<wgt id='1117'> +2.8297996e+11 </wgt>
<wgt id='1118'> +2.8494619e+11 </wgt>
<wgt id='1119'> +2.8209684e+11 </wgt>
<wgt id='1120'> +2.8150502e+11 </wgt>
<wgt id='1121'> +2.8301383e+11 </wgt>
<wgt id='1122'> +2.8222414e+11 </wgt>
<wgt id='1123'> +2.8345093e+11 </wgt>
<wgt id='1124'> +2.8422591e+11 </wgt>
<wgt id='1125'> +2.8357086e+11 </wgt>
<wgt id='1126'> +2.8363643e+11 </wgt>
<wgt id='1127'> +2.8353956e+11 </wgt>
<wgt id='1128'> +2.8316019e+11 </wgt>
<wgt id='1129'> +2.8272348e+11 </wgt>
<wgt id='1130'> +2.8343553e+11 </wgt>
<wgt id='1131'> +2.8514801e+11 </wgt>
<wgt id='1132'> +2.8297003e+11 </wgt>
<wgt id='1133'> +2.8379823e+11 </wgt>
<wgt id='1134'> +2.8340713e+11 </wgt>
<wgt id='1135'> +2.8362716e+11 </wgt>
<wgt id='1136'> +2.8289112e+11 </wgt>
<wgt id='1137'> +2.8275616e+11 </wgt>
<wgt id='1138'> +2.8362037e+11 </wgt>
<wgt id='1139'> +2.8393287e+11 </wgt>
<wgt id='1140'> +2.8404855e+11 </wgt>
<wgt id='1141'> +2.8278318e+11 </wgt>
<wgt id='1142'> +2.8349115e+11 </wgt>
<wgt id='1143'> +2.8404580e+11 </wgt>
<wgt id='1144'> +2.8339747e+11 </wgt>
<wgt id='1145'> +2.8382458e+11 </wgt>
<wgt id='1146'> +2.8386783e+11 </wgt>
<wgt id='1147'> +2.8360081e+11 </wgt>
<wgt id='1148'> +2.8343000e+11 </wgt>
<wgt id='1149'> +2.8343000e+11 </wgt>
<wgt id='1150'> +2.7827054e+11 </wgt>
<wgt id='1151'> +2.8366077e+11 </wgt>
<wgt id='1152'> +2.9500503e+11 </wgt>
<wgt id='1153'> +2.8898767e+11 </wgt>
<wgt id='1154'> +2.6074800e+11 </wgt>
<wgt id='1155'> +3.0425607e+11 </wgt>
<wgt id='1156'> +2.8851077e+11 </wgt>
<wgt id='1157'> +2.8559330e+11 </wgt>
<wgt id='1158'> +2.9712809e+11 </wgt>
<wgt id='1159'> +2.9518509e+11 </wgt>
<wgt id='1160'> +2.5170702e+11 </wgt>
<wgt id='1161'> +2.9948152e+11 </wgt>
<wgt id='1162'> +2.7206739e+11 </wgt>
<wgt id='1163'> +2.8300323e+11 </wgt>
<wgt id='1164'> +2.5064009e+11 </wgt>
<wgt id='1165'> +2.8403032e+11 </wgt>
<wgt id='1166'> +2.7820317e+11 </wgt>
<wgt id='1167'> +2.7828336e+11 </wgt>
<wgt id='1168'> +2.5491499e+11 </wgt>
<wgt id='1169'> +2.5691831e+11 </wgt>
<wgt id='1170'> +2.8427581e+11 </wgt>
<wgt id='1171'> +2.6608310e+11 </wgt>
<wgt id='1172'> +2.5832919e+11 </wgt>
<wgt id='1173'> +2.8837415e+11 </wgt>
<wgt id='1174'> +2.8793964e+11 </wgt>
<wgt id='1175'> +2.8653508e+11 </wgt>
<wgt id='1176'> +2.9398509e+11 </wgt>
<wgt id='1177'> +3.0586782e+11 </wgt>
<wgt id='1178'> +2.7708009e+11 </wgt>
<wgt id='1179'> +3.0081309e+11 </wgt>
<wgt id='1180'> +3.0256596e+11 </wgt>
<wgt id='1181'> +2.5648819e+11 </wgt>
<wgt id='1182'> +2.7024022e+11 </wgt>
<wgt id='1183'> +2.9797120e+11 </wgt>
<wgt id='1184'> +2.7851928e+11 </wgt>
<wgt id='1185'> +2.8603905e+11 </wgt>
<wgt id='1186'> +2.6846159e+11 </wgt>
<wgt id='1187'> +3.1098709e+11 </wgt>
<wgt id='1188'> +3.0253751e+11 </wgt>
<wgt id='1189'> +3.0737719e+11 </wgt>
<wgt id='1190'> +2.9765285e+11 </wgt>
<wgt id='1191'> +3.1849365e+11 </wgt>
<wgt id='1192'> +2.8842564e+11 </wgt>
<wgt id='1193'> +2.9229507e+11 </wgt>
<wgt id='1194'> +2.6779182e+11 </wgt>
<wgt id='1195'> +2.8875053e+11 </wgt>
<wgt id='1196'> +2.6529881e+11 </wgt>
<wgt id='1197'> +2.8842497e+11 </wgt>
<wgt id='1198'> +2.6873308e+11 </wgt>
<wgt id='1199'> +3.0290415e+11 </wgt>
<wgt id='1200'> +2.6903775e+11 </wgt>
<wgt id='1201'> +3.0568083e+11 </wgt>
<wgt id='1202'> +2.7465475e+11 </wgt>
<wgt id='1203'> +2.8469749e+11 </wgt>
<wgt id='1204'> +2.5932587e+11 </wgt>
<wgt id='1205'> +3.0102324e+11 </wgt>
<wgt id='1206'> +2.6833653e+11 </wgt>
<wgt id='1207'> +3.0599404e+11 </wgt>
<wgt id='1208'> +2.9312552e+11 </wgt>
<wgt id='1209'> +2.6696164e+11 </wgt>
<wgt id='1210'> +2.9350683e+11 </wgt>
<wgt id='1211'> +2.9726980e+11 </wgt>
<wgt id='1212'> +2.5805407e+11 </wgt>
<wgt id='1213'> +2.7415873e+11 </wgt>
<wgt id='1214'> +2.7613475e+11 </wgt>
<wgt id='1215'> +3.0158137e+11 </wgt>
<wgt id='1216'> +2.7835429e+11 </wgt>
<wgt id='1217'> +2.8029190e+11 </wgt>
<wgt id='1218'> +2.6670515e+11 </wgt>
<wgt id='1219'> +2.7835334e+11 </wgt>
<wgt id='1220'> +2.6598368e+11 </wgt>
<wgt id='1221'> +2.5572203e+11 </wgt>
<wgt id='1222'> +2.7168295e+11 </wgt>
<wgt id='1223'> +2.7943651e+11 </wgt>
<wgt id='1224'> +2.7939673e+11 </wgt>
<wgt id='1225'> +2.7107676e+11 </wgt>
<wgt id='1226'> +2.7934926e+11 </wgt>
<wgt id='1227'> +2.5808593e+11 </wgt>
<wgt id='1228'> +2.5503857e+11 </wgt>
<wgt id='1229'> +2.9025118e+11 </wgt>
<wgt id='1230'> +2.8458435e+11 </wgt>
<wgt id='1231'> +2.8403032e+11 </wgt>
<wgt id='1232'> +2.8711080e+11 </wgt>
<wgt id='1233'> +2.8430531e+11 </wgt>
<wgt id='1234'> +2.9874703e+11 </wgt>
<wgt id='1235'> +3.0850766e+11 </wgt>
<wgt id='1236'> +3.0263533e+11 </wgt>
<wgt id='1237'> +2.9687523e+11 </wgt>
<wgt id='1238'> +3.2385688e+11 </wgt>
<wgt id='1239'> +3.0165768e+11 </wgt>
<wgt id='1240'> +3.0156962e+11 </wgt>
<wgt id='1241'> +2.6946354e+11 </wgt>
<wgt id='1242'> +2.8737590e+11 </wgt>
<wgt id='1243'> +2.6529694e+11 </wgt>
<wgt id='1244'> +2.8841464e+11 </wgt>
<wgt id='1245'> +2.9391723e+11 </wgt>
<wgt id='1246'> +3.0545444e+11 </wgt>
<wgt id='1247'> +2.7126217e+11 </wgt>
<wgt id='1248'> +2.7606225e+11 </wgt>
<wgt id='1249'> +2.7801316e+11 </wgt>
<wgt id='1250'> +2.9874835e+11 </wgt>
<wgt id='1251'> +3.1471818e+11 </wgt>
<wgt id='1252'> +2.8186255e+11 </wgt>
<wgt id='1253'> +3.2630930e+11 </wgt>
<wgt id='1254'> +2.9210866e+11 </wgt>
<wgt id='1255'> +3.1955200e+11 </wgt>
<wgt id='1256'> +3.2088319e+11 </wgt>
<wgt id='1257'> +2.6690057e+11 </wgt>
<wgt id='1258'> +3.0293389e+11 </wgt>
<wgt id='1259'> +3.4172349e+11 </wgt>
<wgt id='1260'> +3.7988759e+11 </wgt>
<wgt id='1261'> +3.7494123e+11 </wgt>
<wgt id='1262'> +3.1179001e+11 </wgt>
<wgt id='1263'> +3.1947562e+11 </wgt>
<wgt id='1264'> +3.0146069e+11 </wgt>
<wgt id='1265'> +2.7322028e+11 </wgt>
<wgt id='1266'> +2.9733988e+11 </wgt>
<wgt id='1267'> +4.4339752e+11 </wgt>
<wgt id='1268'> +2.7076915e+11 </wgt>
<wgt id='1269'> +2.6246225e+11 </wgt>
<wgt id='1270'> +3.4047099e+11 </wgt>
<wgt id='1271'> +2.1257311e+11 </wgt>
<wgt id='1272'> +3.0197700e+11 </wgt>
<wgt id='1273'> +2.9505428e+11 </wgt>
<wgt id='1274'> +3.0139480e+11 </wgt>
<wgt id='1275'> +2.8764366e+11 </wgt>
<wgt id='1276'> +3.2797661e+11 </wgt>
<wgt id='1277'> +3.5193102e+11 </wgt>
<wgt id='1278'> +3.2422054e+11 </wgt>
<wgt id='1279'> +2.6514405e+11 </wgt>
<wgt id='1280'> +3.3962939e+11 </wgt>
<wgt id='1281'> +2.7824348e+11 </wgt>
<wgt id='1282'> +2.8575655e+11 </wgt>
<wgt id='1283'> +3.4475970e+11 </wgt>
<wgt id='1284'> +2.8209779e+11 </wgt>
<wgt id='1285'> +2.6589613e+11 </wgt>
<wgt id='1286'> +3.9447290e+11 </wgt>
<wgt id='1287'> +4.0501388e+11 </wgt>
<wgt id='1288'> +4.3395670e+11 </wgt>
<wgt id='1289'> +3.4817785e+11 </wgt>
<wgt id='1290'> +3.2335881e+11 </wgt>
<wgt id='1291'> +2.8874731e+11 </wgt>
<wgt id='1292'> +3.1870349e+11 </wgt>
<wgt id='1293'> +3.0178515e+11 </wgt>
<wgt id='1294'> +4.1351650e+11 </wgt>
<wgt id='1295'> +3.2616083e+11 </wgt>
<wgt id='1296'> +4.1021825e+11 </wgt>
<wgt id='1297'> +2.6797593e+11 </wgt>
<wgt id='1298'> +2.9225595e+11 </wgt>
<wgt id='1299'> +3.0743260e+11 </wgt>
<wgt id='1300'> +2.3719121e+11 </wgt>
<wgt id='1301'> +2.4861119e+11 </wgt>
<wgt id='1302'> +2.5921046e+11 </wgt>
<wgt id='1303'> +3.0765864e+11 </wgt>
<wgt id='1304'> +3.8423230e+11 </wgt>
<wgt id='1305'> +2.9079604e+11 </wgt>
<wgt id='1306'> +3.0321062e+11 </wgt>
<wgt id='1307'> +2.6552339e+11 </wgt>
<wgt id='1308'> +3.5334623e+11 </wgt>
<wgt id='1309'> +3.2485687e+11 </wgt>
<wgt id='1310'> +3.0700535e+11 </wgt>
<wgt id='1311'> +2.8115189e+11 </wgt>
<wgt id='1312'> +3.8108680e+11 </wgt>
<wgt id='1313'> +3.4368091e+11 </wgt>
<wgt id='1314'> +2.5447760e+11 </wgt>
<wgt id='1315'> +2.6324793e+11 </wgt>
<wgt id='1316'> +2.9822126e+11 </wgt>
<wgt id='1317'> +3.9230657e+11 </wgt>
<wgt id='1318'> +2.8436253e+11 </wgt>
<wgt id='1319'> +2.9862633e+11 </wgt>
<wgt id='1320'> +3.3755918e+11 </wgt>
<wgt id='1321'> +3.2897265e+11 </wgt>
<wgt id='1322'> +3.2297146e+11 </wgt>
<wgt id='1323'> +2.4818085e+11 </wgt>
<wgt id='1324'> +3.3687223e+11 </wgt>
<wgt id='1325'> +3.2508931e+11 </wgt>
<wgt id='1326'> +3.4533106e+11 </wgt>
<wgt id='1327'> +3.4566440e+11 </wgt>
<wgt id='1328'> +3.3738252e+11 </wgt>
<wgt id='1329'> +2.7289932e+11 </wgt>
<wgt id='1330'> +2.6313340e+11 </wgt>
<wgt id='1331'> +3.3919925e+11 </wgt>
<wgt id='1332'> +3.3490777e+11 </wgt>
<wgt id='1333'> +3.0687481e+11 </wgt>
<wgt id='1334'> +3.6313897e+11 </wgt>
<wgt id='1335'> +2.5175539e+11 </wgt>
<wgt id='1336'> +3.9059069e+11 </wgt>
<wgt id='1337'> +3.1688384e+11 </wgt>
<wgt id='1338'> +2.6975020e+11 </wgt>
<wgt id='1339'> +2.7796723e+11 </wgt>
<wgt id='1340'> +3.6768957e+11 </wgt>
<wgt id='1341'> +4.3087014e+11 </wgt>
<wgt id='1342'> +2.6988251e+11 </wgt>
<wgt id='1343'> +3.2168835e+11 </wgt>
<wgt id='1344'> +3.4786696e+11 </wgt>
<wgt id='1345'> +1.9556492e+11 </wgt>
<wgt id='1346'> +3.0140436e+11 </wgt>
<wgt id='1347'> +3.0872154e+11 </wgt>
<wgt id='1348'> +2.6235176e+11 </wgt>
<wgt id='1349'> +2.7894538e+11 </wgt>
<wgt id='1350'> +3.8570624e+11 </wgt>
<wgt id='1351'> +2.8614936e+11 </wgt>
<wgt id='1352'> +3.1830042e+11 </wgt>
<wgt id='1353'> +3.2570660e+11 </wgt>
<wgt id='1354'> +3.2206504e+11 </wgt>
<wgt id='1355'> +2.7940435e+11 </wgt>
<wgt id='1356'> +2.8626907e+11 </wgt>
<wgt id='1357'> +2.8357393e+11 </wgt>
<wgt id='1358'> +2.7028509e+11 </wgt>
<wgt id='1359'> +2.7944805e+11 </wgt>
<wgt id='1360'> +2.6912742e+11 </wgt>
<wgt id='1361'> +2.7997986e+11 </wgt>
<wgt id='1362'> +2.8570135e+11 </wgt>
<wgt id='1363'> +2.7021279e+11 </wgt>
<wgt id='1364'> +3.0813594e+11 </wgt>
<wgt id='1365'> +2.7362486e+11 </wgt>
<wgt id='1366'> +2.8405590e+11 </wgt>
<wgt id='1367'> +2.7092144e+11 </wgt>
<wgt id='1368'> +2.9600002e+11 </wgt>
<wgt id='1369'> +2.8129288e+11 </wgt>
<wgt id='1370'> +2.6404166e+11 </wgt>
<wgt id='1371'> +2.6475671e+11 </wgt>
<wgt id='1372'> +2.6755133e+11 </wgt>
<wgt id='1373'> +2.9849021e+11 </wgt>
<wgt id='1374'> +2.7649774e+11 </wgt>
<wgt id='1375'> +2.8234618e+11 </wgt>
<wgt id='1376'> +2.8411850e+11 </wgt>
<wgt id='1377'> +2.7823723e+11 </wgt>
<wgt id='1378'> +2.8448738e+11 </wgt>
<wgt id='1379'> +2.7162460e+11 </wgt>
<wgt id='1380'> +2.7300751e+11 </wgt>
<wgt id='1381'> +2.8562697e+11 </wgt>
<wgt id='1382'> +2.6647814e+11 </wgt>
<wgt id='1383'> +2.7544623e+11 </wgt>
<wgt id='1384'> +2.6165384e+11 </wgt>
<wgt id='1385'> +2.7675641e+11 </wgt>
<wgt id='1386'> +2.7777065e+11 </wgt>
<wgt id='1387'> +2.8847408e+11 </wgt>
<wgt id='1388'> +2.8191585e+11 </wgt>
<wgt id='1389'> +2.6748685e+11 </wgt>
<wgt id='1390'> +2.8104826e+11 </wgt>
<wgt id='1391'> +2.9749854e+11 </wgt>
<wgt id='1392'> +2.6326833e+11 </wgt>
<wgt id='1393'> +2.8732729e+11 </wgt>
<wgt id='1394'> +2.8982065e+11 </wgt>
<wgt id='1395'> +2.5846914e+11 </wgt>
<wgt id='1396'> +2.7636224e+11 </wgt>
<wgt id='1397'> +2.7586117e+11 </wgt>
<wgt id='1398'> +3.0218775e+11 </wgt>
<wgt id='1399'> +2.6714557e+11 </wgt>
<wgt id='1400'> +2.7499931e+11 </wgt>
<wgt id='1401'> +2.6432293e+11 </wgt>
<wgt id='1402'> +2.8260214e+11 </wgt>
<wgt id='1403'> +2.9251352e+11 </wgt>
<wgt id='1404'> +2.7791736e+11 </wgt>
<wgt id='1405'> +3.0605755e+11 </wgt>
<wgt id='1406'> +2.9039231e+11 </wgt>
<wgt id='1407'> +3.0194838e+11 </wgt>
<wgt id='1408'> +3.0192030e+11 </wgt>
<wgt id='1409'> +2.7405799e+11 </wgt>
<wgt id='1410'> +2.8324636e+11 </wgt>
<wgt id='1411'> +2.7805623e+11 </wgt>
<wgt id='1412'> +3.0191908e+11 </wgt>
<wgt id='1413'> +2.8866658e+11 </wgt>
<wgt id='1414'> +2.8696958e+11 </wgt>
<wgt id='1415'> +2.6971147e+11 </wgt>
<wgt id='1416'> +2.7952517e+11 </wgt>
<wgt id='1417'> +2.6239251e+11 </wgt>
<wgt id='1418'> +2.7425801e+11 </wgt>
<wgt id='1419'> +2.8061931e+11 </wgt>
<wgt id='1420'> +2.5733065e+11 </wgt>
<wgt id='1421'> +2.9577352e+11 </wgt>
<wgt id='1422'> +2.5917716e+11 </wgt>
<wgt id='1423'> +2.7772502e+11 </wgt>
<wgt id='1424'> +2.6930414e+11 </wgt>
<wgt id='1425'> +2.7572010e+11 </wgt>
<wgt id='1426'> +2.9042140e+11 </wgt>
<wgt id='1427'> +2.7001343e+11 </wgt>
<wgt id='1428'> +2.6692254e+11 </wgt>
<wgt id='1429'> +2.7511760e+11 </wgt>
<wgt id='1430'> +2.6918266e+11 </wgt>
<wgt id='1431'> +2.8350516e+11 </wgt>
<wgt id='1432'> +2.6705202e+11 </wgt>
<wgt id='1433'> +2.7010624e+11 </wgt>
<wgt id='1434'> +2.6751195e+11 </wgt>
<wgt id='1435'> +2.8970689e+11 </wgt>
<wgt id='1436'> +2.7675962e+11 </wgt>
<wgt id='1437'> +2.8228829e+11 </wgt>
<wgt id='1438'> +2.7515828e+11 </wgt>
<wgt id='1439'> +2.8442728e+11 </wgt>
<wgt id='1440'> +2.8221810e+11 </wgt>
<wgt id='1441'> +2.7727332e+11 </wgt>
<wgt id='1442'> +2.8041074e+11 </wgt>
<wgt id='1443'> +2.6438943e+11 </wgt>
<wgt id='1444'> +2.9019033e+11 </wgt>
<wgt id='1445'> +2.6992912e+11 </wgt>
<wgt id='1446'> +3.0172191e+11 </wgt>
<wgt id='1447'> +2.9532419e+11 </wgt>
<wgt id='1448'> +2.8463979e+11 </wgt>
<wgt id='1449'> +2.7652029e+11 </wgt>
<wgt id='1450'> +2.7074887e+11 </wgt>
<wgt id='1451'> +2.6621962e+11 </wgt>
<wgt id='1452'> +2.9026590e+11 </wgt>
<wgt id='1453'> +2.9895109e+11 </wgt>
<wgt id='1454'> +2.6907877e+11 </wgt>
<wgt id='1455'> +2.8291785e+11 </wgt>
<wgt id='1456'> +2.7317743e+11 </wgt>
<wgt id='1457'> +2.8531540e+11 </wgt>
<wgt id='1458'> +2.9188472e+11 </wgt>
<wgt id='1459'> +3.0716110e+11 </wgt>
<wgt id='1460'> +3.0081594e+11 </wgt>
<wgt id='1461'> +3.7838176e+11 </wgt>
<wgt id='1462'> +3.2836393e+11 </wgt>
<wgt id='1463'> +3.2858220e+11 </wgt>
<wgt id='1464'> +3.2808397e+11 </wgt>
<wgt id='1465'> +3.2845060e+11 </wgt>
<wgt id='1466'> +3.2828478e+11 </wgt>
<wgt id='1467'> +3.2843018e+11 </wgt>
<wgt id='1468'> +3.2825522e+11 </wgt>
<wgt id='1469'> +3.2787557e+11 </wgt>
<wgt id='1470'> +3.2876049e+11 </wgt>
<wgt id='1471'> +3.2883388e+11 </wgt>
<wgt id='1472'> +3.2787985e+11 </wgt>
<wgt id='1473'> +3.2977441e+11 </wgt>
<wgt id='1474'> +3.2700888e+11 </wgt>
<wgt id='1475'> +3.2960815e+11 </wgt>
<wgt id='1476'> +3.2748257e+11 </wgt>
<wgt id='1477'> +3.2774549e+11 </wgt>
<wgt id='1478'> +3.2980929e+11 </wgt>
<wgt id='1479'> +3.2805214e+11 </wgt>
<wgt id='1480'> +3.2859017e+11 </wgt>
<wgt id='1481'> +3.2725271e+11 </wgt>
<wgt id='1482'> +3.2987669e+11 </wgt>
<wgt id='1483'> +3.2835058e+11 </wgt>
<wgt id='1484'> +3.2839506e+11 </wgt>
<wgt id='1485'> +3.2848095e+11 </wgt>
<wgt id='1486'> +3.2808012e+11 </wgt>
<wgt id='1487'> +3.2847784e+11 </wgt>
<wgt id='1488'> +3.2819684e+11 </wgt>
<wgt id='1489'> +3.2792295e+11 </wgt>
<wgt id='1490'> +3.2956055e+11 </wgt>
<wgt id='1491'> +3.3472191e+11 </wgt>
<wgt id='1492'> +3.2481963e+11 </wgt>
<wgt id='1493'> +3.2403412e+11 </wgt>
<wgt id='1494'> +3.4192118e+11 </wgt>
<wgt id='1495'> +3.2689153e+11 </wgt>
<wgt id='1496'> +3.2994984e+11 </wgt>
<wgt id='1497'> +3.2874570e+11 </wgt>
<wgt id='1498'> +3.2784591e+11 </wgt>
<wgt id='1499'> +3.3163559e+11 </wgt>
<wgt id='1500'> +3.2658694e+11 </wgt>
<wgt id='1501'> +3.2790081e+11 </wgt>
<wgt id='1502'> +3.2967117e+11 </wgt>
<wgt id='1503'> +3.1786794e+11 </wgt>
<wgt id='1504'> +3.4094329e+11 </wgt>
<wgt id='1505'> +3.2789600e+11 </wgt>
<wgt id='1506'> +3.2887095e+11 </wgt>
<wgt id='1507'> +3.3885067e+11 </wgt>
<wgt id='1508'> +3.0772698e+11 </wgt>
<wgt id='1509'> +3.2991978e+11 </wgt>
<wgt id='1510'> +3.2159276e+11 </wgt>
<wgt id='1511'> +3.2888959e+11 </wgt>
<wgt id='1512'> +3.2950510e+11 </wgt>
<wgt id='1513'> +3.2760635e+11 </wgt>
<wgt id='1514'> +3.2919081e+11 </wgt>
<wgt id='1515'> +3.4000954e+11 </wgt>
<wgt id='1516'> +3.2262189e+11 </wgt>
<wgt id='1517'> +3.2679161e+11 </wgt>
<wgt id='1518'> +3.3150922e+11 </wgt>
<wgt id='1519'> +3.2523811e+11 </wgt>
<wgt id='1520'> +3.3056780e+11 </wgt>
<wgt id='1521'> +3.2563993e+11 </wgt>
<wgt id='1522'> +3.2982729e+11 </wgt>
<wgt id='1523'> +3.3123552e+11 </wgt>
<wgt id='1524'> +3.2970987e+11 </wgt>
<wgt id='1525'> +3.2855381e+11 </wgt>
<wgt id='1526'> +3.3123325e+11 </wgt>
<wgt id='1527'> +3.2836393e+11 </wgt>
<wgt id='1528'> +3.2203037e+11 </wgt>
<wgt id='1529'> +3.3508072e+11 </wgt>
<wgt id='1530'> +3.0599492e+11 </wgt>
<wgt id='1531'> +3.4788879e+11 </wgt>
<wgt id='1532'> +3.5664888e+11 </wgt>
<wgt id='1533'> +3.4187742e+11 </wgt>
<wgt id='1534'> +3.4387647e+11 </wgt>
<wgt id='1535'> +3.5275838e+11 </wgt>
<wgt id='1536'> +3.3745666e+11 </wgt>
<wgt id='1537'> +3.5854602e+11 </wgt>
<wgt id='1538'> +3.4205720e+11 </wgt>
<wgt id='1539'> +3.5609526e+11 </wgt>
<wgt id='1540'> +3.5609074e+11 </wgt>
<wgt id='1541'> +3.5199963e+11 </wgt>
<wgt id='1542'> +3.5084655e+11 </wgt>
<wgt id='1543'> +3.5399608e+11 </wgt>
<wgt id='1544'> +3.4400341e+11 </wgt>
<wgt id='1545'> +3.4607649e+11 </wgt>
<wgt id='1546'> +3.4484774e+11 </wgt>
<wgt id='1547'> +3.5000537e+11 </wgt>
<wgt id='1548'> +3.4867593e+11 </wgt>
<wgt id='1549'> +3.4466878e+11 </wgt>
<wgt id='1550'> +3.5200677e+11 </wgt>
<wgt id='1551'> +3.4994869e+11 </wgt>
<wgt id='1552'> +3.4907813e+11 </wgt>
<wgt id='1553'> +3.6216439e+11 </wgt>
<wgt id='1554'> +3.4983644e+11 </wgt>
<wgt id='1555'> +3.4754953e+11 </wgt>
<wgt id='1556'> +3.5153194e+11 </wgt>
<wgt id='1557'> +3.4842126e+11 </wgt>
<wgt id='1558'> +3.4741859e+11 </wgt>
<wgt id='1559'> +3.4759982e+11 </wgt>
<wgt id='1560'> +3.4989264e+11 </wgt>
<wgt id='1561'> +3.4695929e+11 </wgt>
<wgt id='1562'> +3.4131638e+11 </wgt>
<wgt id='1563'> +3.4856993e+11 </wgt>
<wgt id='1564'> +3.4731611e+11 </wgt>
<wgt id='1565'> +3.5563817e+11 </wgt>
<wgt id='1566'> +3.4767257e+11 </wgt>
<wgt id='1567'> +3.4251735e+11 </wgt>
<wgt id='1568'> +3.4754063e+11 </wgt>
<wgt id='1569'> +3.4759579e+11 </wgt>
<wgt id='1570'> +3.5618462e+11 </wgt>
<wgt id='1571'> +3.4615172e+11 </wgt>
<wgt id='1572'> +3.4450710e+11 </wgt>
<wgt id='1573'> +3.5941988e+11 </wgt>
<wgt id='1574'> +2.2483013e+11 </wgt>
<wgt id='1575'> +2.2488354e+11 </wgt>
<wgt id='1576'> +2.2476010e+11 </wgt>
<wgt id='1577'> +2.2484656e+11 </wgt>
<wgt id='1578'> +2.2534641e+11 </wgt>
<wgt id='1579'> +2.2546716e+11 </wgt>
<wgt id='1580'> +2.2522802e+11 </wgt>
<wgt id='1581'> +2.2470137e+11 </wgt>
<wgt id='1582'> +2.2450345e+11 </wgt>
<wgt id='1583'> +2.2429167e+11 </wgt>
<wgt id='1584'> +2.2537699e+11 </wgt>
<wgt id='1585'> +2.2530762e+11 </wgt>
<wgt id='1586'> +2.2448579e+11 </wgt>
<wgt id='1587'> +2.2446068e+11 </wgt>
<wgt id='1588'> +2.2412736e+11 </wgt>
<wgt id='1589'> +2.2434666e+11 </wgt>
<wgt id='1590'> +2.2465078e+11 </wgt>
<wgt id='1591'> +2.2489648e+11 </wgt>
<wgt id='1592'> +2.2405579e+11 </wgt>
<wgt id='1593'> +2.2350177e+11 </wgt>
<wgt id='1594'> +2.2625223e+11 </wgt>
<wgt id='1595'> +2.2202947e+11 </wgt>
<wgt id='1596'> +2.2980357e+11 </wgt>
<wgt id='1597'> +2.2651477e+11 </wgt>
<wgt id='1598'> +2.2641041e+11 </wgt>
<wgt id='1599'> +2.2161662e+11 </wgt>
<wgt id='1600'> +2.3011103e+11 </wgt>
<wgt id='1601'> +2.2690387e+11 </wgt>
<wgt id='1602'> +2.2531731e+11 </wgt>
<wgt id='1603'> +2.4370620e+11 </wgt>
<wgt id='1604'> +2.2441415e+11 </wgt>
</rwgt>
</event>
<event>
 9      1 +2.8343000e+11 1.40000200e+03 7.81738600e-03 7.88881100e-02
       21 -1    0    0  504  503 +0.0000000000e+00 +0.0000000000e+00 +6.9932522129e+02 6.9932522129e+02 0.0000000000e+00 0.0000e+00 -1.0000e+00
       21 -1    0    0  503  504 -0.0000000000e+00 -0.0000000000e+00 -7.0067717745e+02 7.0067717745e+02 0.0000000000e+00 0.0000e+00 -1.0000e+00
       45  2    1    2    0    0 +0.0000000000e+00 +0.0000000000e+00 -1.3519561592e+00 1.4000023987e+03 1.4000017460e+03 0.0000e+00 0.0000e+00
       25  2    3    3    0    0 -4.1618064551e+02 -5.3831938921e+02 -1.2376927284e+02 7.0280777334e+02 1.2500335544e+02 0.0000e+00 0.0000e+00
       35  2    3    3    0    0 +4.1618064551e+02 +5.3831938921e+02 +1.2241731668e+02 6.9719462541e+02 9.0001398753e+01 0.0000e+00 0.0000e+00
        5  1    5    5  501    0 +2.7972402494e+02 +3.0632178524e+02 +1.0221340152e+02 4.2725156932e+02 4.2140000000e+00 0.0000e+00 1.0000e+00
       -5  1    5    5    0  501 +1.3645662056e+02 +2.3199760397e+02 +2.0203915165e+01 2.6994305608e+02 4.2140000000e+00 0.0000e+00 1.0000e+00
        5  1    4    4  502    0 -2.9749030161e+02 -4.5771789442e+02 -1.2141960008e+02 5.5925542242e+02 4.2140000000e+00 0.0000e+00 1.0000e+00
       -5  1    4    4    0  502 -1.1869034390e+02 -8.0601494788e+01 -2.3496727672e+00 1.4355235092e+02 4.2140000000e+00 0.0000e+00 1.0000e+00
<mgrwt>
<rscale>  0 0.14000017E+04</rscale>
<asrwt>0</asrwt>
<pdfrwt beam="1">  1       21 0.10758850E+00 0.14000017E+04</pdfrwt>
<pdfrwt beam="2">  1       21 0.10779649E+00 0.14000017E+04</pdfrwt>
<totfact> 0.35889619E+02</totfact>
</mgrwt>
<rwgt>
<wgt id='1001'> +2.8343000e+11 </wgt>
<wgt id='1002'> +2.8429101e+11 </wgt>
<wgt id='1003'> +2.8429094e+11 </wgt>
<wgt id='1004'> +3.1869057e+11 </wgt>
<wgt id='1005'> +2.8343000e+11 </wgt>
<wgt id='1006'> +2.8343000e+11 </wgt>
<wgt id='1007'> +2.8429101e+11 </wgt>
<wgt id='1008'> +2.8429094e+11 </wgt>
<wgt id='1009'> +3.1869057e+11 </wgt>
<wgt id='1010'> +2.8343000e+11 </wgt>
<wgt id='1011'> +2.8343000e+11 </wgt>
<wgt id='1012'> +2.8429101e+11 </wgt>
<wgt id='1013'> +2.8429094e+11 </wgt>
<wgt id='1014'> +3.1869057e+11 </wgt>
<wgt id='1015'> +2.8343000e+11 </wgt>
<wgt id='1016'> +2.5470602e+11 </wgt>
<wgt id='1017'> +2.5543592e+11 </wgt>
<wgt id='1018'> +2.5543586e+11 </wgt>
<wgt id='1019'> +2.8429094e+11 </wgt>
<wgt id='1020'> +2.5470602e+11 </wgt>
<wgt id='1021'> +2.5470602e+11 </wgt>
<wgt id='1022'> +2.5543592e+11 </wgt>
<wgt id='1023'> +2.5543586e+11 </wgt>
<wgt id='1024'> +2.8429094e+11 </wgt>
<wgt id='1025'> +2.5470602e+11 </wgt>
<wgt id='1026'> +2.5470602e+11 </wgt>
<wgt id='1027'> +2.5543592e+11 </wgt>
<wgt id='1028'> +2.5543586e+11 </wgt>
<wgt id='1029'> +2.8429094e+11 </wgt>
<wgt id='1030'> +2.5470602e+11 </wgt>
<wgt id='1031'> +3.1765766e+11 </wgt>
<wgt id='1032'> +3.1869066e+11 </wgt>
<wgt id='1033'> +3.1869057e+11 </wgt>
<wgt id='1034'> +3.6003727e+11 </wgt>
<wgt id='1035'> +3.1765766e+11 </wgt>
<wgt id='1036'> +3.1765766e+11 </wgt>
<wgt id='1037'> +3.1869066e+11 </wgt>
<wgt id='1038'> +3.1869057e+11 </wgt>
<wgt id='1039'> +3.6003727e+11 </wgt>
<wgt id='1040'> +3.1765766e+11 </wgt>
<wgt id='1041'> +3.1765766e+11 </wgt>
<wgt id='1042'> +3.1869066e+11 </wgt>
<wgt id='1043'> +3.1869057e+11 </wgt>
<wgt id='1044'> +3.6003727e+11 </wgt>
<wgt id='1045'> +3.1765766e+11 </wgt>
<wgt id='1046'> +2.8343000e+11 </wgt>
<wgt id='1047'> +2.8343000e+11 </wgt>
<wgt id='1048'> +2.8343000e+11 </wgt>
<wgt id='1049'> +2.8225525e+11 </wgt>
<wgt id='1050'> +2.8304252e+11 </wgt>
<wgt id='1051'> +2.8377228e+11 </wgt>
<wgt id='1052'> +2.8419492e+11 </wgt>
<wgt id='1053'> +2.8189667e+11 </wgt>
<wgt id='1054'> +2.8388660e+11 </wgt>
<wgt id='1055'> +2.8224835e+11 </wgt>
<wgt id='1056'> +2.8179578e+11 </wgt>
<wgt id='1057'> +2.8422927e+11 </wgt>
<wgt id='1058'> +2.8306013e+11 </wgt>
<wgt id='1059'> +2.8541439e+11 </wgt>
<wgt id='1060'> +2.8366112e+11 </wgt>
<wgt id='1061'> +2.8421696e+11 </wgt>
<wgt id='1062'> +2.8400362e+11 </wgt>
<wgt id='1063'> +2.8363428e+11 </wgt>
<wgt id='1064'> +2.8471095e+11 </wgt>
<wgt id='1065'> +2.8488057e+11 </wgt>
<wgt id='1066'> +2.8202179e+11 </wgt>
<wgt id='1067'> +2.7964300e+11 </wgt>
<wgt id='1068'> +2.8383043e+11 </wgt>
<wgt id='1069'> +2.8280066e+11 </wgt>
<wgt id='1070'> +2.8340240e+11 </wgt>
<wgt id='1071'> +2.8495661e+11 </wgt>
<wgt id='1072'> +2.8110639e+11 </wgt>
<wgt id='1073'> +2.8412728e+11 </wgt>
<wgt id='1074'> +2.8301918e+11 </wgt>
<wgt id='1075'> +2.8440175e+11 </wgt>
<wgt id='1076'> +2.8330339e+11 </wgt>
<wgt id='1077'> +2.8299855e+11 </wgt>
<wgt id='1078'> +2.8409652e+11 </wgt>
<wgt id='1079'> +2.8176618e+11 </wgt>
<wgt id='1080'> +2.8276017e+11 </wgt>
<wgt id='1081'> +2.8303020e+11 </wgt>
<wgt id='1082'> +2.8203754e+11 </wgt>
<wgt id='1083'> +2.8400230e+11 </wgt>
<wgt id='1084'> +2.8407114e+11 </wgt>
<wgt id='1085'> +2.8285948e+11 </wgt>
<wgt id='1086'> +2.8278560e+11 </wgt>
<wgt id='1087'> +2.8307978e+11 </wgt>
<wgt id='1088'> +2.8293485e+11 </wgt>
<wgt id='1089'> +2.8279758e+11 </wgt>
<wgt id='1090'> +2.8413193e+11 </wgt>
<wgt id='1091'> +2.8347981e+11 </wgt>
<wgt id='1092'> +2.8371100e+11 </wgt>
<wgt id='1093'> +2.8332970e+11 </wgt>
<wgt id='1094'> +2.8292130e+11 </wgt>
<wgt id='1095'> +2.8354439e+11 </wgt>
<wgt id='1096'> +2.8339401e+11 </wgt>
<wgt id='1097'> +2.8303962e+11 </wgt>
<wgt id='1098'> +2.8307658e+11 </wgt>
<wgt id='1099'> +2.8324008e+11 </wgt>
<wgt id='1100'> +2.8402249e+11 </wgt>
<wgt id='1101'> +2.8341450e+11 </wgt>
<wgt id='1102'> +2.8328988e+11 </wgt>
<wgt id='1103'> +2.8310082e+11 </wgt>
<wgt id='1104'> +2.8310267e+11 </wgt>
<wgt id='1105'> +2.8353365e+11 </wgt>
<wgt id='1106'> +2.8377181e+11 </wgt>
<wgt id='1107'> +2.8334655e+11 </wgt>
<wgt id='1108'> +2.8333490e+11 </wgt>
<wgt id='1109'> +2.8324498e+11 </wgt>
<wgt id='1110'> +2.8376162e+11 </wgt>
<wgt id='1111'> +2.8356182e+11 </wgt>
<wgt id='1112'> +2.8339568e+11 </wgt>
<wgt id='1113'> +2.8373590e+11 </wgt>
<wgt id='1114'> +2.8311003e+11 </wgt>
<wgt id='1115'> +2.8326374e+11 </wgt>
<wgt id='1116'> +2.8372842e+11 </wgt>
<wgt id='1117'> +2.8337576e+11 </wgt>
<wgt id='1118'> +2.8353538e+11 </wgt>
<wgt id='1119'> +2.8325681e+11 </wgt>
<wgt id='1120'> +2.8329025e+11 </wgt>
<wgt id='1121'> +2.8350449e+11 </wgt>
<wgt id='1122'> +2.8322663e+11 </wgt>
<wgt id='1123'> +2.8337125e+11 </wgt>
<wgt id='1124'> +2.8332829e+11 </wgt>
<wgt id='1125'> +2.8359102e+11 </wgt>
<wgt id='1126'> +2.8353505e+11 </wgt>
<wgt id='1127'> +2.8332180e+11 </wgt>
<wgt id='1128'> +2.8347638e+11 </wgt>
<wgt id='1129'> +2.8339609e+11 </wgt>
<wgt id='1130'> +2.8346854e+11 </wgt>
<wgt id='1131'> +2.8369057e+11 </wgt>
<wgt id='1132'> +2.8335375e+11 </wgt>
<wgt id='1133'> +2.8350592e+11 </wgt>
<wgt id='1134'> +2.8341214e+11 </wgt>
<wgt id='1135'> +2.8346710e+11 </wgt>
<wgt id='1136'> +2.8340339e+11 </wgt>
<wgt id='1137'> +2.8329164e+11 </wgt>
<wgt id='1138'> +2.8354128e+11 </wgt>
<wgt id='1139'> +2.8346806e+11 </wgt>
<wgt id='1140'> +2.8364368e+11 </wgt>
<wgt id='1141'> +2.8330872e+11 </wgt>
<wgt id='1142'> +2.8349837e+11 </wgt>
<wgt id='1143'> +2.8359087e+11 </wgt>
<wgt id='1144'> +2.8334625e+11 </wgt>
<wgt id='1145'> +2.8355211e+11 </wgt>
<wgt id='1146'> +2.8340859e+11 </wgt>
<wgt id='1147'> +2.8347165e+11 </wgt>
<wgt id='1148'> +2.8343000e+11 </wgt>
<wgt id='1149'> +2.8343000e+11 </wgt>
<wgt id='1150'> +2.9079385e+11 </wgt>
<wgt id='1151'> +2.8135089e+11 </wgt>
<wgt id='1152'> +2.8581207e+11 </wgt>
<wgt id='1153'> +2.8779361e+11 </wgt>
<wgt id='1154'> +2.8760398e+11 </wgt>
<wgt id='1155'> +2.8827470e+11 </wgt>
<wgt id='1156'> +2.7649027e+11 </wgt>
<wgt id='1157'> +2.7679311e+11 </wgt>
<wgt id='1158'> +2.7768215e+11 </wgt>
<wgt id='1159'> +2.9604011e+11 </wgt>
<wgt id='1160'> +2.8146376e+11 </wgt>
<wgt id='1161'> +2.8556867e+11 </wgt>
<wgt id='1162'> +2.7585349e+11 </wgt>
<wgt id='1163'> +2.8691260e+11 </wgt>
<wgt id='1164'> +2.6752185e+11 </wgt>
<wgt id='1165'> +2.7947486e+11 </wgt>
<wgt id='1166'> +2.8513277e+11 </wgt>
<wgt id='1167'> +2.8004687e+11 </wgt>
<wgt id='1168'> +2.7663274e+11 </wgt>
<wgt id='1169'> +2.7600570e+11 </wgt>
<wgt id='1170'> +2.7563347e+11 </wgt>
<wgt id='1171'> +2.7352761e+11 </wgt>
<wgt id='1172'> +2.7766218e+11 </wgt>
<wgt id='1173'> +2.8813590e+11 </wgt>
<wgt id='1174'> +2.7980527e+11 </wgt>
<wgt id='1175'> +2.7511253e+11 </wgt>
<wgt id='1176'> +2.8639335e+11 </wgt>
<wgt id='1177'> +2.7935739e+11 </wgt>
<wgt id='1178'> +2.8318271e+11 </wgt>
<wgt id='1179'> +2.8022843e+11 </wgt>
<wgt id='1180'> +2.8328598e+11 </wgt>
<wgt id='1181'> +2.7576809e+11 </wgt>
<wgt id='1182'> +2.8174941e+11 </wgt>
<wgt id='1183'> +2.9597983e+11 </wgt>
<wgt id='1184'> +2.7557926e+11 </wgt>
<wgt id='1185'> +2.8005711e+11 </wgt>
<wgt id='1186'> +2.7143300e+11 </wgt>
<wgt id='1187'> +2.8583722e+11 </wgt>
<wgt id='1188'> +2.7632870e+11 </wgt>
<wgt id='1189'> +2.8577759e+11 </wgt>
<wgt id='1190'> +2.8437231e+11 </wgt>
<wgt id='1191'> +2.9541019e+11 </wgt>
<wgt id='1192'> +2.9198058e+11 </wgt>
<wgt id='1193'> +2.9554847e+11 </wgt>
<wgt id='1194'> +2.8478940e+11 </wgt>
<wgt id='1195'> +2.8380616e+11 </wgt>
<wgt id='1196'> +2.9241130e+11 </wgt>
<wgt id='1197'> +2.9421519e+11 </wgt>
<wgt id='1198'> +2.7496070e+11 </wgt>
<wgt id='1199'> +2.8162056e+11 </wgt>
<wgt id='1200'> +2.8212983e+11 </wgt>
<wgt id='1201'> +2.7934049e+11 </wgt>
<wgt id='1202'> +2.8875028e+11 </wgt>
<wgt id='1203'> +2.7751487e+11 </wgt>
<wgt id='1204'> +2.8856230e+11 </wgt>
<wgt id='1205'> +2.8522297e+11 </wgt>
<wgt id='1206'> +2.7637731e+11 </wgt>
<wgt id='1207'> +2.9325256e+11 </wgt>
<wgt id='1208'> +2.7298501e+11 </wgt>
<wgt id='1209'> +2.7848145e+11 </wgt>
<wgt id='1210'> +2.8018893e+11 </wgt>
<wgt id='1211'> +2.8571958e+11 </wgt>
<wgt id='1212'> +2.8373054e+11 </wgt>
<wgt id='1213'> +2.9361280e+11 </wgt>
<wgt id='1214'> +2.7570066e+11 </wgt>
<wgt id='1215'> +2.9226853e+11 </wgt>
<wgt id='1216'> +2.8612958e+11 </wgt>
<wgt id='1217'> +2.7590554e+11 </wgt>
<wgt id='1218'> +2.8481510e+11 </wgt>
<wgt id='1219'> +2.9447064e+11 </wgt>
<wgt id='1220'> +2.7699983e+11 </wgt>
<wgt id='1221'> +2.7498165e+11 </wgt>
<wgt id='1222'> +2.8050843e+11 </wgt>
<wgt id='1223'> +2.7259574e+11 </wgt>
<wgt id='1224'> +2.8354962e+11 </wgt>
<wgt id='1225'> +2.8806876e+11 </wgt>
<wgt id='1226'> +2.9085270e+11 </wgt>
<wgt id='1227'> +2.7274248e+11 </wgt>
<wgt id='1228'> +2.8136247e+11 </wgt>
<wgt id='1229'> +3.0288366e+11 </wgt>
<wgt id='1230'> +2.9434897e+11 </wgt>
<wgt id='1231'> +2.7947486e+11 </wgt>
<wgt id='1232'> +2.8924949e+11 </wgt>
<wgt id='1233'> +2.7826471e+11 </wgt>
<wgt id='1234'> +2.7634646e+11 </wgt>
<wgt id='1235'> +3.0322069e+11 </wgt>
<wgt id='1236'> +2.7659890e+11 </wgt>
<wgt id='1237'> +2.8993108e+11 </wgt>
<wgt id='1238'> +2.8994999e+11 </wgt>
<wgt id='1239'> +2.9235751e+11 </wgt>
<wgt id='1240'> +2.8579981e+11 </wgt>
<wgt id='1241'> +2.8193576e+11 </wgt>
<wgt id='1242'> +2.8082567e+11 </wgt>
<wgt id='1243'> +2.8910894e+11 </wgt>
<wgt id='1244'> +2.8115691e+11 </wgt>
<wgt id='1245'> +2.8191885e+11 </wgt>
<wgt id='1246'> +3.0735936e+11 </wgt>
<wgt id='1247'> +2.8385217e+11 </wgt>
<wgt id='1248'> +2.7549388e+11 </wgt>
<wgt id='1249'> +2.7776632e+11 </wgt>
<wgt id='1250'> +2.9211529e+11 </wgt>
<wgt id='1251'> +2.9860679e+11 </wgt>
<wgt id='1252'> +2.8711368e+11 </wgt>
<wgt id='1253'> +2.8509734e+11 </wgt>
<wgt id='1254'> +2.8861584e+11 </wgt>
<wgt id='1255'> +2.9786399e+11 </wgt>
<wgt id='1256'> +2.9495685e+11 </wgt>
<wgt id='1257'> +2.8498668e+11 </wgt>
<wgt id='1258'> +3.0044378e+11 </wgt>
<wgt id='1259'> +2.9453186e+11 </wgt>
<wgt id='1260'> +3.2545156e+11 </wgt>
<wgt id='1261'> +3.1373212e+11 </wgt>
<wgt id='1262'> +2.8950012e+11 </wgt>
<wgt id='1263'> +2.9660629e+11 </wgt>
<wgt id='1264'> +2.9838142e+11 </wgt>
<wgt id='1265'> +2.9877947e+11 </wgt>
<wgt id='1266'> +2.9412193e+11 </wgt>
<wgt id='1267'> +3.1462274e+11 </wgt>
<wgt id='1268'> +2.9429240e+11 </wgt>
<wgt id='1269'> +2.8716657e+11 </wgt>
<wgt id='1270'> +2.9095842e+11 </wgt>
<wgt id='1271'> +2.7971617e+11 </wgt>
<wgt id='1272'> +2.9331246e+11 </wgt>
<wgt id='1273'> +2.9191300e+11 </wgt>
<wgt id='1274'> +2.8767549e+11 </wgt>
<wgt id='1275'> +2.9858480e+11 </wgt>
<wgt id='1276'> +2.9527802e+11 </wgt>
<wgt id='1277'> +2.9065983e+11 </wgt>
<wgt id='1278'> +2.8599294e+11 </wgt>
<wgt id='1279'> +2.8120368e+11 </wgt>
<wgt id='1280'> +2.9412565e+11 </wgt>
<wgt id='1281'> +2.8582935e+11 </wgt>
<wgt id='1282'> +2.9660230e+11 </wgt>
<wgt id='1283'> +2.9589230e+11 </wgt>
<wgt id='1284'> +3.1489645e+11 </wgt>
<wgt id='1285'> +3.0815733e+11 </wgt>
<wgt id='1286'> +3.2861979e+11 </wgt>
<wgt id='1287'> +3.0321756e+11 </wgt>
<wgt id='1288'> +3.2337811e+11 </wgt>
<wgt id='1289'> +3.1292753e+11 </wgt>
<wgt id='1290'> +3.1133851e+11 </wgt>
<wgt id='1291'> +2.7786664e+11 </wgt>
<wgt id='1292'> +2.9722921e+11 </wgt>
<wgt id='1293'> +3.0000266e+11 </wgt>
<wgt id='1294'> +3.1418825e+11 </wgt>
<wgt id='1295'> +2.9763569e+11 </wgt>
<wgt id='1296'> +3.1503687e+11 </wgt>
<wgt id='1297'> +2.9556811e+11 </wgt>
<wgt id='1298'> +2.8773934e+11 </wgt>
<wgt id='1299'> +2.9838768e+11 </wgt>
<wgt id='1300'> +2.8792206e+11 </wgt>
<wgt id='1301'> +2.8102513e+11 </wgt>
<wgt id='1302'> +2.7518161e+11 </wgt>
<wgt id='1303'> +2.9824837e+11 </wgt>
<wgt id='1304'> +3.0552737e+11 </wgt>
<wgt id='1305'> +2.9826318e+11 </wgt>
<wgt id='1306'> +3.0511433e+11 </wgt>
<wgt id='1307'> +3.0403805e+11 </wgt>
<wgt id='1308'> +3.2514281e+11 </wgt>
<wgt id='1309'> +2.9563700e+11 </wgt>
<wgt id='1310'> +3.0212637e+11 </wgt>
<wgt id='1311'> +3.0818110e+11 </wgt>
<wgt id='1312'> +2.9886686e+11 </wgt>
<wgt id='1313'> +2.9666778e+11 </wgt>
<wgt id='1314'> +3.0436942e+11 </wgt>
<wgt id='1315'> +2.8475846e+11 </wgt>
<wgt id='1316'> +2.9840844e+11 </wgt>
<wgt id='1317'> +3.0110243e+11 </wgt>
<wgt id='1318'> +2.8598908e+11 </wgt>
<wgt id='1319'> +3.0805117e+11 </wgt>
<wgt id='1320'> +3.0878317e+11 </wgt>
<wgt id='1321'> +2.9361743e+11 </wgt>
<wgt id='1322'> +2.9772968e+11 </wgt>
<wgt id='1323'> +2.9876201e+11 </wgt>
<wgt id='1324'> +3.0112351e+11 </wgt>
<wgt id='1325'> +3.1083439e+11 </wgt>
<wgt id='1326'> +3.0257353e+11 </wgt>
<wgt id='1327'> +2.9296583e+11 </wgt>
<wgt id='1328'> +3.0284019e+11 </wgt>
<wgt id='1329'> +2.9767583e+11 </wgt>
<wgt id='1330'> +2.9081154e+11 </wgt>
<wgt id='1331'> +3.1908070e+11 </wgt>
<wgt id='1332'> +2.8576303e+11 </wgt>
<wgt id='1333'> +3.0040874e+11 </wgt>
<wgt id='1334'> +3.1379220e+11 </wgt>
<wgt id='1335'> +2.9241567e+11 </wgt>
<wgt id='1336'> +3.0190042e+11 </wgt>
<wgt id='1337'> +3.0840901e+11 </wgt>
<wgt id='1338'> +2.8982287e+11 </wgt>
<wgt id='1339'> +3.2038168e+11 </wgt>
<wgt id='1340'> +3.0150385e+11 </wgt>
<wgt id='1341'> +3.0444065e+11 </wgt>
<wgt id='1342'> +3.1589471e+11 </wgt>
<wgt id='1343'> +3.1027029e+11 </wgt>
<wgt id='1344'> +3.0291866e+11 </wgt>
<wgt id='1345'> +2.8040666e+11 </wgt>
<wgt id='1346'> +2.9933208e+11 </wgt>
<wgt id='1347'> +2.8663392e+11 </wgt>
<wgt id='1348'> +2.8790106e+11 </wgt>
<wgt id='1349'> +2.8994395e+11 </wgt>
<wgt id='1350'> +3.0022648e+11 </wgt>
<wgt id='1351'> +2.9687609e+11 </wgt>
<wgt id='1352'> +3.0032799e+11 </wgt>
<wgt id='1353'> +2.9701652e+11 </wgt>
<wgt id='1354'> +3.0680616e+11 </wgt>
<wgt id='1355'> +2.7540299e+11 </wgt>
<wgt id='1356'> +2.7816019e+11 </wgt>
<wgt id='1357'> +2.7632573e+11 </wgt>
<wgt id='1358'> +2.7279145e+11 </wgt>
<wgt id='1359'> +2.7619027e+11 </wgt>
<wgt id='1360'> +2.6855369e+11 </wgt>
<wgt id='1361'> +2.7548232e+11 </wgt>
<wgt id='1362'> +2.7706466e+11 </wgt>
<wgt id='1363'> +2.6917453e+11 </wgt>
<wgt id='1364'> +2.8174764e+11 </wgt>
<wgt id='1365'> +2.7306982e+11 </wgt>
<wgt id='1366'> +2.7567605e+11 </wgt>
<wgt id='1367'> +2.7627008e+11 </wgt>
<wgt id='1368'> +2.7542744e+11 </wgt>
<wgt id='1369'> +2.7980657e+11 </wgt>
<wgt id='1370'> +2.7352504e+11 </wgt>
<wgt id='1371'> +2.7295927e+11 </wgt>
<wgt id='1372'> +2.7997928e+11 </wgt>
<wgt id='1373'> +2.7907237e+11 </wgt>
<wgt id='1374'> +2.6730428e+11 </wgt>
<wgt id='1375'> +2.7422197e+11 </wgt>
<wgt id='1376'> +2.7636157e+11 </wgt>
<wgt id='1377'> +2.7527612e+11 </wgt>
<wgt id='1378'> +2.7109100e+11 </wgt>
<wgt id='1379'> +2.7387126e+11 </wgt>
<wgt id='1380'> +2.7386507e+11 </wgt>
<wgt id='1381'> +2.8073065e+11 </wgt>
<wgt id='1382'> +2.7505211e+11 </wgt>
<wgt id='1383'> +2.7544756e+11 </wgt>
<wgt id='1384'> +2.7381918e+11 </wgt>
<wgt id='1385'> +2.7403062e+11 </wgt>
<wgt id='1386'> +2.7746288e+11 </wgt>
<wgt id='1387'> +2.7443170e+11 </wgt>
<wgt id='1388'> +2.7174684e+11 </wgt>
<wgt id='1389'> +2.7365899e+11 </wgt>
<wgt id='1390'> +2.7423836e+11 </wgt>
<wgt id='1391'> +2.7314045e+11 </wgt>
<wgt id='1392'> +2.7325164e+11 </wgt>
<wgt id='1393'> +2.7330625e+11 </wgt>
<wgt id='1394'> +2.7308030e+11 </wgt>
<wgt id='1395'> +2.7117393e+11 </wgt>
<wgt id='1396'> +2.7646573e+11 </wgt>
<wgt id='1397'> +2.7598820e+11 </wgt>
<wgt id='1398'> +2.7598630e+11 </wgt>
<wgt id='1399'> +2.7094445e+11 </wgt>
<wgt id='1400'> +2.7251888e+11 </wgt>
<wgt id='1401'> +2.7382781e+11 </wgt>
<wgt id='1402'> +2.7867529e+11 </wgt>
<wgt id='1403'> +2.7838263e+11 </wgt>
<wgt id='1404'> +2.7305030e+11 </wgt>
<wgt id='1405'> +2.8151476e+11 </wgt>
<wgt id='1406'> +2.7507964e+11 </wgt>
<wgt id='1407'> +2.7613340e+11 </wgt>
<wgt id='1408'> +2.7851775e+11 </wgt>
<wgt id='1409'> +2.7337752e+11 </wgt>
<wgt id='1410'> +2.7328087e+11 </wgt>
<wgt id='1411'> +2.7508323e+11 </wgt>
<wgt id='1412'> +2.7434382e+11 </wgt>
<wgt id='1413'> +2.7229837e+11 </wgt>
<wgt id='1414'> +2.7706561e+11 </wgt>
<wgt id='1415'> +2.8129214e+11 </wgt>
<wgt id='1416'> +2.7857956e+11 </wgt>
<wgt id='1417'> +2.6857992e+11 </wgt>
<wgt id='1418'> +2.7713286e+11 </wgt>
<wgt id='1419'> +2.7891384e+11 </wgt>
<wgt id='1420'> +2.7466246e+11 </wgt>
<wgt id='1421'> +2.8145581e+11 </wgt>
<wgt id='1422'> +2.6777450e+11 </wgt>
<wgt id='1423'> +2.8066082e+11 </wgt>
<wgt id='1424'> +2.7639959e+11 </wgt>
<wgt id='1425'> +2.7558630e+11 </wgt>
<wgt id='1426'> +2.7902949e+11 </wgt>
<wgt id='1427'> +2.7538000e+11 </wgt>
<wgt id='1428'> +2.7527401e+11 </wgt>
<wgt id='1429'> +2.7108950e+11 </wgt>
<wgt id='1430'> +2.7062389e+11 </wgt>
<wgt id='1431'> +2.7074619e+11 </wgt>
<wgt id='1432'> +2.7743486e+11 </wgt>
<wgt id='1433'> +2.7614690e+11 </wgt>
<wgt id='1434'> +2.8203213e+11 </wgt>
<wgt id='1435'> +2.7455413e+11 </wgt>
<wgt id='1436'> +2.7960602e+11 </wgt>
<wgt id='1437'> +2.7821155e+11 </wgt>
<wgt id='1438'> +2.7338195e+11 </wgt>
<wgt id='1439'> +2.7599326e+11 </wgt>
<wgt id='1440'> +2.8008006e+11 </wgt>
<wgt id='1441'> +2.7542236e+11 </wgt>
<wgt id='1442'> +2.8316495e+11 </wgt>
<wgt id='1443'> +2.7359864e+11 </wgt>
<wgt id='1444'> +2.7356935e+11 </wgt>
<wgt id='1445'> +2.7845344e+11 </wgt>
<wgt id='1446'> +2.7750000e+11 </wgt>
<wgt id='1447'> +2.7133974e+11 </wgt>
<wgt id='1448'> +2.7775610e+11 </wgt>
<wgt id='1449'> +2.7667163e+11 </wgt>
<wgt id='1450'> +2.7346008e+11 </wgt>
<wgt id='1451'> +2.7662758e+11 </wgt>
<wgt id='1452'> +2.7864955e+11 </wgt>
<wgt id='1453'> +2.8062697e+11 </wgt>
<wgt id='1454'> +2.6882717e+11 </wgt>
<wgt id='1455'> +2.7465775e+11 </wgt>
<wgt id='1456'> +2.7464747e+11 </wgt>
<wgt id='1457'> +2.7417434e+11 </wgt>
<wgt id='1458'> +2.7719030e+11 </wgt>
<wgt id='1459'> +3.0510869e+11 </wgt>
<wgt id='1460'> +3.0043468e+11 </wgt>
<wgt id='1461'> +3.4720055e+11 </wgt>
<wgt id='1462'> +2.9973679e+11 </wgt>
<wgt id='1463'> +2.9998774e+11 </wgt>
<wgt id='1464'> +2.9941496e+11 </wgt>
<wgt id='1465'> +2.9979804e+11 </wgt>
<wgt id='1466'> +2.9968083e+11 </wgt>
<wgt id='1467'> +2.9990147e+11 </wgt>
<wgt id='1468'> +2.9946661e+11 </wgt>
<wgt id='1469'> +2.9928551e+11 </wgt>
<wgt id='1470'> +3.0010333e+11 </wgt>
<wgt id='1471'> +3.0021656e+11 </wgt>
<wgt id='1472'> +2.9924264e+11 </wgt>
<wgt id='1473'> +3.0088609e+11 </wgt>
<wgt id='1474'> +2.9863290e+11 </wgt>
<wgt id='1475'> +3.0083428e+11 </wgt>
<wgt id='1476'> +2.9895867e+11 </wgt>
<wgt id='1477'> +2.9916218e+11 </wgt>
<wgt id='1478'> +3.0107903e+11 </wgt>
<wgt id='1479'> +2.9915313e+11 </wgt>
<wgt id='1480'> +3.0014407e+11 </wgt>
<wgt id='1481'> +2.9931832e+11 </wgt>
<wgt id='1482'> +3.0030104e+11 </wgt>
<wgt id='1483'> +2.9983575e+11 </wgt>
<wgt id='1484'> +2.9959619e+11 </wgt>
<wgt id='1485'> +2.9993732e+11 </wgt>
<wgt id='1486'> +2.9925387e+11 </wgt>
<wgt id='1487'> +2.9998395e+11 </wgt>
<wgt id='1488'> +2.9942573e+11 </wgt>
<wgt id='1489'> +2.9938606e+11 </wgt>
<wgt id='1490'> +3.0068757e+11 </wgt>
<wgt id='1491'> +3.0465634e+11 </wgt>
<wgt id='1492'> +2.9699072e+11 </wgt>
<wgt id='1493'> +2.9624321e+11 </wgt>
<wgt id='1494'> +3.1068517e+11 </wgt>
<wgt id='1495'> +2.9910816e+11 </wgt>
<wgt id='1496'> +3.0041101e+11 </wgt>
<wgt id='1497'> +2.9993569e+11 </wgt>
<wgt id='1498'> +2.9946494e+11 </wgt>
<wgt id='1499'> +3.0159914e+11 </wgt>
<wgt id='1500'> +2.9871788e+11 </wgt>
<wgt id='1501'> +3.0020457e+11 </wgt>
<wgt id='1502'> +2.9849692e+11 </wgt>
<wgt id='1503'> +2.9663019e+11 </wgt>
<wgt id='1504'> +3.0302639e+11 </wgt>
<wgt id='1505'> +3.0077475e+11 </wgt>
<wgt id='1506'> +2.9874094e+11 </wgt>
<wgt id='1507'> +3.0098076e+11 </wgt>
<wgt id='1508'> +2.9913868e+11 </wgt>
<wgt id='1509'> +3.0030426e+11 </wgt>
<wgt id='1510'> +2.9730173e+11 </wgt>
<wgt id='1511'> +3.0083984e+11 </wgt>
<wgt id='1512'> +2.9942767e+11 </wgt>
<wgt id='1513'> +2.9965910e+11 </wgt>
<wgt id='1514'> +2.9980579e+11 </wgt>
<wgt id='1515'> +3.0210626e+11 </wgt>
<wgt id='1516'> +3.0022238e+11 </wgt>
<wgt id='1517'> +2.9936871e+11 </wgt>
<wgt id='1518'> +3.0003171e+11 </wgt>
<wgt id='1519'> +2.9812223e+11 </wgt>
<wgt id='1520'> +3.0088614e+11 </wgt>
<wgt id='1521'> +2.9898555e+11 </wgt>
<wgt id='1522'> +3.0018925e+11 </wgt>
<wgt id='1523'> +3.0111141e+11 </wgt>
<wgt id='1524'> +3.0108005e+11 </wgt>
<wgt id='1525'> +3.0099315e+11 </wgt>
<wgt id='1526'> +3.0049274e+11 </wgt>
<wgt id='1527'> +2.9973679e+11 </wgt>
<wgt id='1528'> +2.9958648e+11 </wgt>
<wgt id='1529'> +2.9935276e+11 </wgt>
<wgt id='1530'> +2.9558182e+11 </wgt>
<wgt id='1531'> +2.9659537e+11 </wgt>
<wgt id='1532'> +2.9420604e+11 </wgt>
<wgt id='1533'> +2.9222697e+11 </wgt>
<wgt id='1534'> +2.9498290e+11 </wgt>
<wgt id='1535'> +2.9906769e+11 </wgt>
<wgt id='1536'> +2.9349721e+11 </wgt>
<wgt id='1537'> +2.9648313e+11 </wgt>
<wgt id='1538'> +2.9343103e+11 </wgt>
<wgt id='1539'> +3.0285032e+11 </wgt>
<wgt id='1540'> +2.9571238e+11 </wgt>
<wgt id='1541'> +2.9666316e+11 </wgt>
<wgt id='1542'> +2.9649280e+11 </wgt>
<wgt id='1543'> +2.9761188e+11 </wgt>
<wgt id='1544'> +2.9469533e+11 </wgt>
<wgt id='1545'> +2.9464192e+11 </wgt>
<wgt id='1546'> +2.9270221e+11 </wgt>
<wgt id='1547'> +2.9888584e+11 </wgt>
<wgt id='1548'> +2.9457810e+11 </wgt>
<wgt id='1549'> +2.9327006e+11 </wgt>
<wgt id='1550'> +2.9717428e+11 </wgt>
<wgt id='1551'> +2.9724586e+11 </wgt>
<wgt id='1552'> +2.9590069e+11 </wgt>
<wgt id='1553'> +2.9836557e+11 </wgt>
<wgt id='1554'> +2.9643350e+11 </wgt>
<wgt id='1555'> +2.9718998e+11 </wgt>
<wgt id='1556'> +2.9895146e+11 </wgt>
<wgt id='1557'> +2.9592489e+11 </wgt>
<wgt id='1558'> +2.9656504e+11 </wgt>
<wgt id='1559'> +2.9458670e+11 </wgt>
<wgt id='1560'> +2.9538488e+11 </wgt>
<wgt id='1561'> +2.9261150e+11 </wgt>
<wgt id='1562'> +2.9515076e+11 </wgt>
<wgt id='1563'> +2.9650993e+11 </wgt>
<wgt id='1564'> +2.9621805e+11 </wgt>
<wgt id='1565'> +2.9879596e+11 </wgt>
<wgt id='1566'> +2.9690970e+11 </wgt>
<wgt id='1567'> +3.0016768e+11 </wgt>
<wgt id='1568'> +2.9654065e+11 </wgt>
<wgt id='1569'> +2.9623373e+11 </wgt>
<wgt id='1570'> +2.9794765e+11 </wgt>
<wgt id='1571'> +2.9639337e+11 </wgt>
<wgt id='1572'> +2.9827423e+11 </wgt>
<wgt id='1573'> +2.9934913e+11 </wgt>
<wgt id='1574'> +2.6340994e+11 </wgt>
<wgt id='1575'> +2.6348181e+11 </wgt>
<wgt id='1576'> +2.6334239e+11 </wgt>
<wgt id='1577'> +2.6342813e+11 </wgt>
<wgt id='1578'> +2.6401700e+11 </wgt>
<wgt id='1579'> +2.6427707e+11 </wgt>
<wgt id='1580'> +2.6404910e+11 </wgt>
<wgt id='1581'> +2.6278162e+11 </wgt>
<wgt id='1582'> +2.6247389e+11 </wgt>
<wgt id='1583'> +2.6297544e+11 </wgt>
<wgt id='1584'> +2.6398558e+11 </wgt>
<wgt id='1585'> +2.6359693e+11 </wgt>
<wgt id='1586'> +2.6238325e+11 </wgt>
<wgt id='1587'> +2.6264051e+11 </wgt>
<wgt id='1588'> +2.6213691e+11 </wgt>
<wgt id='1589'> +2.6316285e+11 </wgt>
<wgt id='1590'> +2.6322058e+11 </wgt>
<wgt id='1591'> +2.6347710e+11 </wgt>
<wgt id='1592'> +2.6237900e+11 </wgt>
<wgt id='1593'> +2.6255133e+11 </wgt>
<wgt id='1594'> +2.6421615e+11 </wgt>
<wgt id='1595'> +2.6119112e+11 </wgt>
<wgt id='1596'> +2.6696678e+11 </wgt>
<wgt id='1597'> +2.6513641e+11 </wgt>
<wgt id='1598'> +2.6536587e+11 </wgt>
<wgt id='1599'> +2.6068069e+11 </wgt>
<wgt id='1600'> +2.6781441e+11 </wgt>
<wgt id='1601'> +2.6555087e+11 </wgt>
<wgt id='1602'> +2.6346720e+11 </wgt>
<wgt id='1603'> +2.7369765e+11 </wgt>
<wgt id='1604'> +2.6349522e+11 </wgt>
</rwgt>
</event>
<event>
 9      1 +2.8343000e+11 1.40000100e+03 7.81738600e-03 7.88881100e-02
       21 -1    0    0  504  503 +0.0000000000e+00 +0.0000000000e+00 +4.7645327691e+02 4.7645327691e+02 0.0000000000e+00 0.0000e+00 1.0000e+00
       21 -1    0    0  503  504 -0.0000000000e+00 -0.0000000000e+00 -1.0284332011e+03 1.0284332011e+03 0.0000000000e+00 0.0000e+00 1.0000e+00
       45  2    1    2    0    0 +0.0000000000e+00 +0.0000000000e+00 -5.5197992417e+02 1.5048864780e+03 1.4000005268e+03 0.0000e+00 0.0000e+00
       25  2    3    3    0    0 -4.4734981404e+02 -5.2561912913e+02 -2.3210648647e+02 7.3884761487e+02 1.2500020766e+02 0.0000e+00 0.0000e+00
       35  2    3    3    0    0 +4.4734981404e+02 +5.2561912913e+02 -3.1987343770e+02 7.6603886312e+02 8.9995547870e+01 0.0000e+00 0.0000e+00
        5  1    5    5  501    0 +3.2369939949e+02 +4.3683654724e+02 -2.5411333030e+02 6.0016565436e+02 4.2140000000e+00 0.0000e+00 1.0000e+00
       -5  1    5    5    0  501 +1.2365041455e+02 +8.8782581889e+01 -6.5760107400e+01 1.6587320876e+02 4.2140000000e+00 0.0000e+00 1.0000e+00
        5  1    4    4  502    0 -1.8806996404e+02 -2.9952297395e+02 -7.9723127081e+01 3.6257117658e+02 4.2140000000e+00 0.0000e+00 1.0000e+00
       -5  1    4    4    0  502 -2.5927985000e+02 -2.2609615518e+02 -1.5238335939e+02 3.7627643830e+02 4.2140000000e+00 0.0000e+00 1.0000e+00
<mgrwt>
<rscale>  0 0.14000005E+04</rscale>
<asrwt>0</asrwt>
<pdfrwt beam="1">  1       21 0.73300506E-01 0.14000005E+04</pdfrwt>
<pdfrwt beam="2">  1       21 0.15822049E+00 0.14000005E+04</pdfrwt>
<totfact> 0.31612835E+02</totfact>
</mgrwt>
<rwgt>
<wgt id='1001'> +2.8343000e+11 </wgt>
<wgt id='1002'> +2.8363545e+11 </wgt>
<wgt id='1003'> +2.8363487e+11 </wgt>
<wgt id='1004'> +3.1847028e+11 </wgt>
<wgt id='1005'> +2.8343000e+11 </wgt>
<wgt id='1006'> +2.8343000e+11 </wgt>
<wgt id='1007'> +2.8363545e+11 </wgt>
<wgt id='1008'> +2.8363487e+11 </wgt>
<wgt id='1009'> +3.1847028e+11 </wgt>
<wgt id='1010'> +2.8343000e+11 </wgt>
<wgt id='1011'> +2.8343000e+11 </wgt>
<wgt id='1012'> +2.8363545e+11 </wgt>
<wgt id='1013'> +2.8363487e+11 </wgt>
<wgt id='1014'> +3.1847028e+11 </wgt>
<wgt id='1015'> +2.8343000e+11 </wgt>
<wgt id='1016'> +2.5428106e+11 </wgt>
<wgt id='1017'> +2.5445486e+11 </wgt>
<wgt id='1018'> +2.5445437e+11 </wgt>
<wgt id='1019'> +2.8363487e+11 </wgt>
<wgt id='1020'> +2.5428106e+11 </wgt>
<wgt id='1021'> +2.5428106e+11 </wgt>
<wgt id='1022'> +2.5445486e+11 </wgt>
<wgt id='1023'> +2.5445437e+11 </wgt>
<wgt id='1024'> +2.8363487e+11 </wgt>
<wgt id='1025'> +2.5428106e+11 </wgt>
<wgt id='1026'> +2.5428106e+11 </wgt>
<wgt id='1027'> +2.5445486e+11 </wgt>
<wgt id='1028'> +2.5445437e+11 </wgt>
<wgt id='1029'> +2.8363487e+11 </wgt>
<wgt id='1030'> +2.5428106e+11 </wgt>
<wgt id='1031'> +3.1822416e+11 </wgt>
<wgt id='1032'> +3.1847097e+11 </wgt>
<wgt id='1033'> +3.1847028e+11 </wgt>
<wgt id='1034'> +3.6041083e+11 </wgt>
<wgt id='1035'> +3.1822416e+11 </wgt>
<wgt id='1036'> +3.1822416e+11 </wgt>
<wgt id='1037'> +3.1847097e+11 </wgt>
<wgt id='1038'> +3.1847028e+11 </wgt>
<wgt id='1039'> +3.6041083e+11 </wgt>
<wgt id='1040'> +3.1822416e+11 </wgt>
<wgt id='1041'> +3.1822416e+11 </wgt>
<wgt id='1042'> +3.1847097e+11 </wgt>
<wgt id='1043'> +3.1847028e+11 </wgt>
<wgt id='1044'> +3.6041083e+11 </wgt>
<wgt id='1045'> +3.1822416e+11 </wgt>
<wgt id='1046'> +2.8343000e+11 </wgt>
<wgt id='1047'> +2.8343000e+11 </wgt>
<wgt id='1048'> +2.8343000e+11 </wgt>
<wgt id='1049'> +2.8266596e+11 </wgt>
<wgt id='1050'> +2.8322825e+11 </wgt>
<wgt id='1051'> +2.8333832e+11 </wgt>
<wgt id='1052'> +2.8434770e+11 </wgt>
<wgt id='1053'> +2.8174498e+11 </wgt>
<wgt id='1054'> +2.8374132e+11 </wgt>
<wgt id='1055'> +2.8224465e+11 </wgt>
<wgt id='1056'> +2.8205708e+11 </wgt>
<wgt id='1057'> +2.8377384e+11 </wgt>
<wgt id='1058'> +2.8290054e+11 </wgt>
<wgt id='1059'> +2.8522321e+11 </wgt>
<wgt id='1060'> +2.8376393e+11 </wgt>
<wgt id='1061'> +2.8400061e+11 </wgt>
<wgt id='1062'> +2.8420476e+11 </wgt>
<wgt id='1063'> +2.8426041e+11 </wgt>
<wgt id='1064'> +2.8419250e+11 </wgt>
<wgt id='1065'> +2.8469153e+11 </wgt>
<wgt id='1066'> +2.8138669e+11 </wgt>
<wgt id='1067'> +2.8107415e+11 </wgt>
<wgt id='1068'> +2.8333982e+11 </wgt>
<wgt id='1069'> +2.8258325e+11 </wgt>
<wgt id='1070'> +2.8381470e+11 </wgt>
<wgt id='1071'> +2.8364666e+11 </wgt>
<wgt id='1072'> +2.8180294e+11 </wgt>
<wgt id='1073'> +2.8364875e+11 </wgt>
<wgt id='1074'> +2.8333044e+11 </wgt>
<wgt id='1075'> +2.8449387e+11 </wgt>
<wgt id='1076'> +2.8186090e+11 </wgt>
<wgt id='1077'> +2.8222793e+11 </wgt>
<wgt id='1078'> +2.8409013e+11 </wgt>
<wgt id='1079'> +2.8212710e+11 </wgt>
<wgt id='1080'> +2.8312718e+11 </wgt>
<wgt id='1081'> +2.8294263e+11 </wgt>
<wgt id='1082'> +2.8217896e+11 </wgt>
<wgt id='1083'> +2.8383450e+11 </wgt>
<wgt id='1084'> +2.8393826e+11 </wgt>
<wgt id='1085'> +2.8275775e+11 </wgt>
<wgt id='1086'> +2.8307723e+11 </wgt>
<wgt id='1087'> +2.8312219e+11 </wgt>
<wgt id='1088'> +2.8293098e+11 </wgt>
<wgt id='1089'> +2.8267973e+11 </wgt>
<wgt id='1090'> +2.8413005e+11 </wgt>
<wgt id='1091'> +2.8351966e+11 </wgt>
<wgt id='1092'> +2.8374974e+11 </wgt>
<wgt id='1093'> +2.8333890e+11 </wgt>
<wgt id='1094'> +2.8276091e+11 </wgt>
<wgt id='1095'> +2.8361511e+11 </wgt>
<wgt id='1096'> +2.8339377e+11 </wgt>
<wgt id='1097'> +2.8300866e+11 </wgt>
<wgt id='1098'> +2.8309748e+11 </wgt>
<wgt id='1099'> +2.8316022e+11 </wgt>
<wgt id='1100'> +2.8403449e+11 </wgt>
<wgt id='1101'> +2.8344684e+11 </wgt>
<wgt id='1102'> +2.8330568e+11 </wgt>
<wgt id='1103'> +2.8299501e+11 </wgt>
<wgt id='1104'> +2.8316689e+11 </wgt>
<wgt id='1105'> +2.8353770e+11 </wgt>
<wgt id='1106'> +2.8375900e+11 </wgt>
<wgt id='1107'> +2.8342358e+11 </wgt>
<wgt id='1108'> +2.8329190e+11 </wgt>
<wgt id='1109'> +2.8321909e+11 </wgt>
<wgt id='1110'> +2.8373323e+11 </wgt>
<wgt id='1111'> +2.8356951e+11 </wgt>
<wgt id='1112'> +2.8338448e+11 </wgt>
<wgt id='1113'> +2.8375168e+11 </wgt>
<wgt id='1114'> +2.8311741e+11 </wgt>
<wgt id='1115'> +2.8315824e+11 </wgt>
<wgt id='1116'> +2.8385744e+11 </wgt>
<wgt id='1117'> +2.8336315e+11 </wgt>
<wgt id='1118'> +2.8358076e+11 </wgt>
<wgt id='1119'> +2.8317925e+11 </wgt>
<wgt id='1120'> +2.8323101e+11 </wgt>
<wgt id='1121'> +2.8350549e+11 </wgt>
<wgt id='1122'> +2.8318789e+11 </wgt>
<wgt id='1123'> +2.8337260e+11 </wgt>
<wgt id='1124'> +2.8339251e+11 </wgt>
<wgt id='1125'> +2.8360116e+11 </wgt>
<wgt id='1126'> +2.8354102e+11 </wgt>
<wgt id='1127'> +2.8331146e+11 </wgt>
<wgt id='1128'> +2.8343910e+11 </wgt>
<wgt id='1129'> +2.8334963e+11 </wgt>
<wgt id='1130'> +2.8346765e+11 </wgt>
<wgt id='1131'> +2.8378073e+11 </wgt>
<wgt id='1132'> +2.8334918e+11 </wgt>
<wgt id='1133'> +2.8352725e+11 </wgt>
<wgt id='1134'> +2.8341991e+11 </wgt>
<wgt id='1135'> +2.8346748e+11 </wgt>
<wgt id='1136'> +2.8336989e+11 </wgt>
<wgt id='1137'> +2.8326143e+11 </wgt>
<wgt id='1138'> +2.8355719e+11 </wgt>
<wgt id='1139'> +2.8348726e+11 </wgt>
<wgt id='1140'> +2.8365294e+11 </wgt>
<wgt id='1141'> +2.8326106e+11 </wgt>
<wgt id='1142'> +2.8349817e+11 </wgt>
<wgt id='1143'> +2.8359915e+11 </wgt>
<wgt id='1144'> +2.8333407e+11 </wgt>
<wgt id='1145'> +2.8356627e+11 </wgt>
<wgt id='1146'> +2.8344361e+11 </wgt>
<wgt id='1147'> +2.8348154e+11 </wgt>
<wgt id='1148'> +2.8343000e+11 </wgt>
<wgt id='1149'> +2.8343000e+11 </wgt>
<wgt id='1150'> +2.9618933e+11 </wgt>
<wgt id='1151'> +2.7860024e+11 </wgt>
<wgt id='1152'> +2.7971927e+11 </wgt>
<wgt id='1153'> +2.8645408e+11 </wgt>
<wgt id='1154'> +2.8412156e+11 </wgt>
<wgt id='1155'> +2.9132128e+11 </wgt>
<wgt id='1156'> +2.7727600e+11 </wgt>
<wgt id='1157'> +2.7480448e+11 </wgt>
<wgt id='1158'> +2.7717080e+11 </wgt>
<wgt id='1159'> +2.9945667e+11 </wgt>
<wgt id='1160'> +2.8406288e+11 </wgt>
<wgt id='1161'> +2.8634426e+11 </wgt>
<wgt id='1162'> +2.8248138e+11 </wgt>
<wgt id='1163'> +2.8624860e+11 </wgt>
<wgt id='1164'> +2.7131923e+11 </wgt>
<wgt id='1165'> +2.7775300e+11 </wgt>
<wgt id='1166'> +2.8355047e+11 </wgt>
<wgt id='1167'> +2.7839598e+11 </wgt>
<wgt id='1168'> +2.7511320e+11 </wgt>
<wgt id='1169'> +2.7570048e+11 </wgt>
<wgt id='1170'> +2.8215312e+11 </wgt>
<wgt id='1171'> +2.7290727e+11 </wgt>
<wgt id='1172'> +2.7571834e+11 </wgt>
<wgt id='1173'> +2.8599284e+11 </wgt>
<wgt id='1174'> +2.7761740e+11 </wgt>
<wgt id='1175'> +2.7730825e+11 </wgt>
<wgt id='1176'> +2.8641796e+11 </wgt>
<wgt id='1177'> +2.7816709e+11 </wgt>
<wgt id='1178'> +2.8332655e+11 </wgt>
<wgt id='1179'> +2.8178979e+11 </wgt>
<wgt id='1180'> +2.9039866e+11 </wgt>
<wgt id='1181'> +2.8435370e+11 </wgt>
<wgt id='1182'> +2.8025476e+11 </wgt>
<wgt id='1183'> +2.9174053e+11 </wgt>
<wgt id='1184'> +2.8284574e+11 </wgt>
<wgt id='1185'> +2.8604758e+11 </wgt>
<wgt id='1186'> +2.7560800e+11 </wgt>
<wgt id='1187'> +2.8444154e+11 </wgt>
<wgt id='1188'> +2.8505183e+11 </wgt>
<wgt id='1189'> +2.8296143e+11 </wgt>
<wgt id='1190'> +2.8196768e+11 </wgt>
<wgt id='1191'> +2.9192273e+11 </wgt>
<wgt id='1192'> +2.8966630e+11 </wgt>
<wgt id='1193'> +2.9237760e+11 </wgt>
<wgt id='1194'> +2.8190949e+11 </wgt>
<wgt id='1195'> +2.8392964e+11 </wgt>
<wgt id='1196'> +2.9175689e+11 </wgt>
<wgt id='1197'> +2.9184655e+11 </wgt>
<wgt id='1198'> +2.8185051e+11 </wgt>
<wgt id='1199'> +2.8686397e+11 </wgt>
<wgt id='1200'> +2.8559515e+11 </wgt>
<wgt id='1201'> +2.8007907e+11 </wgt>
<wgt id='1202'> +2.8715499e+11 </wgt>
<wgt id='1203'> +2.8002842e+11 </wgt>
<wgt id='1204'> +2.8441721e+11 </wgt>
<wgt id='1205'> +2.8384734e+11 </wgt>
<wgt id='1206'> +2.7862223e+11 </wgt>
<wgt id='1207'> +2.9156335e+11 </wgt>
<wgt id='1208'> +2.7110704e+11 </wgt>
<wgt id='1209'> +2.8178520e+11 </wgt>
<wgt id='1210'> +2.8413152e+11 </wgt>
<wgt id='1211'> +2.8529441e+11 </wgt>
<wgt id='1212'> +2.8312210e+11 </wgt>
<wgt id='1213'> +2.9039148e+11 </wgt>
<wgt id='1214'> +2.7670650e+11 </wgt>
<wgt id='1215'> +2.8718346e+11 </wgt>
<wgt id='1216'> +2.8342523e+11 </wgt>
<wgt id='1217'> +2.7694908e+11 </wgt>
<wgt id='1218'> +2.8476019e+11 </wgt>
<wgt id='1219'> +2.9375318e+11 </wgt>
<wgt id='1220'> +2.7868527e+11 </wgt>
<wgt id='1221'> +2.7613199e+11 </wgt>
<wgt id='1222'> +2.7904169e+11 </wgt>
<wgt id='1223'> +2.7295980e+11 </wgt>
<wgt id='1224'> +2.8307129e+11 </wgt>
<wgt id='1225'> +2.8822209e+11 </wgt>
<wgt id='1226'> +2.8781672e+11 </wgt>
<wgt id='1227'> +2.7777828e+11 </wgt>
<wgt id='1228'> +2.8189914e+11 </wgt>
<wgt id='1229'> +3.0175482e+11 </wgt>
<wgt id='1230'> +2.9118771e+11 </wgt>
<wgt id='1231'> +2.7775300e+11 </wgt>
<wgt id='1232'> +2.8765498e+11 </wgt>
<wgt id='1233'> +2.7681317e+11 </wgt>
<wgt id='1234'> +2.7687566e+11 </wgt>
<wgt id='1235'> +3.0044541e+11 </wgt>
<wgt id='1236'> +2.7707168e+11 </wgt>
<wgt id='1237'> +2.8905284e+11 </wgt>
<wgt id='1238'> +2.8479401e+11 </wgt>
<wgt id='1239'> +2.8794567e+11 </wgt>
<wgt id='1240'> +2.8083608e+11 </wgt>
<wgt id='1241'> +2.8409721e+11 </wgt>
<wgt id='1242'> +2.8003852e+11 </wgt>
<wgt id='1243'> +2.8668693e+11 </wgt>
<wgt id='1244'> +2.8458218e+11 </wgt>
<wgt id='1245'> +2.7993840e+11 </wgt>
<wgt id='1246'> +3.0536486e+11 </wgt>
<wgt id='1247'> +2.8201544e+11 </wgt>
<wgt id='1248'> +2.7372912e+11 </wgt>
<wgt id='1249'> +2.7622069e+11 </wgt>
<wgt id='1250'> +2.9268988e+11 </wgt>
<wgt id='1251'> +3.0038899e+11 </wgt>
<wgt id='1252'> +2.8815188e+11 </wgt>
<wgt id='1253'> +2.8823422e+11 </wgt>
<wgt id='1254'> +2.8913046e+11 </wgt>
<wgt id='1255'> +3.0072394e+11 </wgt>
<wgt id='1256'> +3.0039421e+11 </wgt>
<wgt id='1257'> +2.9445780e+11 </wgt>
<wgt id='1258'> +2.9667394e+11 </wgt>
<wgt id='1259'> +2.9876527e+11 </wgt>
<wgt id='1260'> +3.2636207e+11 </wgt>
<wgt id='1261'> +3.1435603e+11 </wgt>
<wgt id='1262'> +2.9201058e+11 </wgt>
<wgt id='1263'> +2.9835158e+11 </wgt>
<wgt id='1264'> +3.0100844e+11 </wgt>
<wgt id='1265'> +2.9694124e+11 </wgt>
<wgt id='1266'> +2.9960600e+11 </wgt>
<wgt id='1267'> +3.3026265e+11 </wgt>
<wgt id='1268'> +2.9232760e+11 </wgt>
<wgt id='1269'> +2.8749902e+11 </wgt>
<wgt id='1270'> +2.9813779e+11 </wgt>
<wgt id='1271'> +2.7372958e+11 </wgt>
<wgt id='1272'> +2.9356106e+11 </wgt>
<wgt id='1273'> +2.9153286e+11 </wgt>
<wgt id='1274'> +2.8713663e+11 </wgt>
<wgt id='1275'> +2.9688179e+11 </wgt>
<wgt id='1276'> +2.9914144e+11 </wgt>
<wgt id='1277'> +2.9426328e+11 </wgt>
<wgt id='1278'> +2.9405980e+11 </wgt>
<wgt id='1279'> +2.8083472e+11 </wgt>
<wgt id='1280'> +2.8949064e+11 </wgt>
<wgt id='1281'> +2.8568739e+11 </wgt>
<wgt id='1282'> +2.9643801e+11 </wgt>
<wgt id='1283'> +3.0234761e+11 </wgt>
<wgt id='1284'> +3.1252515e+11 </wgt>
<wgt id='1285'> +3.0865268e+11 </wgt>
<wgt id='1286'> +3.2957467e+11 </wgt>
<wgt id='1287'> +3.0504266e+11 </wgt>
<wgt id='1288'> +3.2817151e+11 </wgt>
<wgt id='1289'> +3.1383752e+11 </wgt>
<wgt id='1290'> +3.1230153e+11 </wgt>
<wgt id='1291'> +2.7849327e+11 </wgt>
<wgt id='1292'> +3.0034890e+11 </wgt>
<wgt id='1293'> +3.0226822e+11 </wgt>
<wgt id='1294'> +3.1824400e+11 </wgt>
<wgt id='1295'> +3.0541036e+11 </wgt>
<wgt id='1296'> +3.2146801e+11 </wgt>
<wgt id='1297'> +2.9398775e+11 </wgt>
<wgt id='1298'> +2.8827282e+11 </wgt>
<wgt id='1299'> +3.0157071e+11 </wgt>
<wgt id='1300'> +2.8789974e+11 </wgt>
<wgt id='1301'> +2.7998548e+11 </wgt>
<wgt id='1302'> +2.8125472e+11 </wgt>
<wgt id='1303'> +3.0086614e+11 </wgt>
<wgt id='1304'> +3.1501150e+11 </wgt>
<wgt id='1305'> +2.9895776e+11 </wgt>
<wgt id='1306'> +3.0611887e+11 </wgt>
<wgt id='1307'> +2.9726876e+11 </wgt>
<wgt id='1308'> +3.2807745e+11 </wgt>
<wgt id='1309'> +2.9836136e+11 </wgt>
<wgt id='1310'> +3.0306990e+11 </wgt>
<wgt id='1311'> +3.0411542e+11 </wgt>
<wgt id='1312'> +3.0477499e+11 </wgt>
<wgt id='1313'> +3.0011462e+11 </wgt>
<wgt id='1314'> +3.0030389e+11 </wgt>
<wgt id='1315'> +2.8678970e+11 </wgt>
<wgt id='1316'> +2.9975700e+11 </wgt>
<wgt id='1317'> +3.0557486e+11 </wgt>
<wgt id='1318'> +2.9021492e+11 </wgt>
<wgt id='1319'> +3.0211036e+11 </wgt>
<wgt id='1320'> +3.1315740e+11 </wgt>
<wgt id='1321'> +2.9700635e+11 </wgt>
<wgt id='1322'> +3.0153324e+11 </wgt>
<wgt id='1323'> +2.9540209e+11 </wgt>
<wgt id='1324'> +3.0406298e+11 </wgt>
<wgt id='1325'> +3.1202547e+11 </wgt>
<wgt id='1326'> +3.0653033e+11 </wgt>
<wgt id='1327'> +3.0289203e+11 </wgt>
<wgt id='1328'> +2.9956852e+11 </wgt>
<wgt id='1329'> +2.9839546e+11 </wgt>
<wgt id='1330'> +2.8869735e+11 </wgt>
<wgt id='1331'> +3.2121555e+11 </wgt>
<wgt id='1332'> +2.9100014e+11 </wgt>
<wgt id='1333'> +3.0193895e+11 </wgt>
<wgt id='1334'> +3.1537003e+11 </wgt>
<wgt id='1335'> +2.9338257e+11 </wgt>
<wgt id='1336'> +3.0863703e+11 </wgt>
<wgt id='1337'> +3.0911452e+11 </wgt>
<wgt id='1338'> +2.8932395e+11 </wgt>
<wgt id='1339'> +3.1861230e+11 </wgt>
<wgt id='1340'> +3.0411620e+11 </wgt>
<wgt id='1341'> +3.1229611e+11 </wgt>
<wgt id='1342'> +3.1026868e+11 </wgt>
<wgt id='1343'> +3.0994316e+11 </wgt>
<wgt id='1344'> +3.1034724e+11 </wgt>
<wgt id='1345'> +2.7343179e+11 </wgt>
<wgt id='1346'> +3.0219342e+11 </wgt>
<wgt id='1347'> +2.8952401e+11 </wgt>
<wgt id='1348'> +2.8957574e+11 </wgt>
<wgt id='1349'> +2.8842277e+11 </wgt>
<wgt id='1350'> +3.0415845e+11 </wgt>
<wgt id='1351'> +2.9469315e+11 </wgt>
<wgt id='1352'> +3.0240904e+11 </wgt>
<wgt id='1353'> +2.9907389e+11 </wgt>
<wgt id='1354'> +3.0843238e+11 </wgt>
<wgt id='1355'> +2.7611053e+11 </wgt>
<wgt id='1356'> +2.7880778e+11 </wgt>
<wgt id='1357'> +2.7657004e+11 </wgt>
<wgt id='1358'> +2.7397889e+11 </wgt>
<wgt id='1359'> +2.7631831e+11 </wgt>
<wgt id='1360'> +2.7033640e+11 </wgt>
<wgt id='1361'> +2.7554590e+11 </wgt>
<wgt id='1362'> +2.8066465e+11 </wgt>
<wgt id='1363'> +2.7168191e+11 </wgt>
<wgt id='1364'> +2.8136989e+11 </wgt>
<wgt id='1365'> +2.7388160e+11 </wgt>
<wgt id='1366'> +2.7426058e+11 </wgt>
<wgt id='1367'> +2.7663748e+11 </wgt>
<wgt id='1368'> +2.7635546e+11 </wgt>
<wgt id='1369'> +2.7938548e+11 </wgt>
<wgt id='1370'> +2.7403256e+11 </wgt>
<wgt id='1371'> +2.7546736e+11 </wgt>
<wgt id='1372'> +2.7941352e+11 </wgt>
<wgt id='1373'> +2.7942911e+11 </wgt>
<wgt id='1374'> +2.6822287e+11 </wgt>
<wgt id='1375'> +2.7613490e+11 </wgt>
<wgt id='1376'> +2.7608250e+11 </wgt>
<wgt id='1377'> +2.7656896e+11 </wgt>
<wgt id='1378'> +2.7371475e+11 </wgt>
<wgt id='1379'> +2.7459071e+11 </wgt>
<wgt id='1380'> +2.7397525e+11 </wgt>
<wgt id='1381'> +2.8113899e+11 </wgt>
<wgt id='1382'> +2.7542905e+11 </wgt>
<wgt id='1383'> +2.7487830e+11 </wgt>
<wgt id='1384'> +2.7352721e+11 </wgt>
<wgt id='1385'> +2.7324143e+11 </wgt>
<wgt id='1386'> +2.7640360e+11 </wgt>
<wgt id='1387'> +2.7467977e+11 </wgt>
<wgt id='1388'> +2.7179895e+11 </wgt>
<wgt id='1389'> +2.7493480e+11 </wgt>
<wgt id='1390'> +2.7665443e+11 </wgt>
<wgt id='1391'> +2.7404311e+11 </wgt>
<wgt id='1392'> +2.7362363e+11 </wgt>
<wgt id='1393'> +2.7538796e+11 </wgt>
<wgt id='1394'> +2.7425524e+11 </wgt>
<wgt id='1395'> +2.7154286e+11 </wgt>
<wgt id='1396'> +2.7681959e+11 </wgt>
<wgt id='1397'> +2.7688527e+11 </wgt>
<wgt id='1398'> +2.7754783e+11 </wgt>
<wgt id='1399'> +2.7279268e+11 </wgt>
<wgt id='1400'> +2.7229539e+11 </wgt>
<wgt id='1401'> +2.7581138e+11 </wgt>
<wgt id='1402'> +2.7905447e+11 </wgt>
<wgt id='1403'> +2.8119697e+11 </wgt>
<wgt id='1404'> +2.7625526e+11 </wgt>
<wgt id='1405'> +2.8235567e+11 </wgt>
<wgt id='1406'> +2.7703220e+11 </wgt>
<wgt id='1407'> +2.7651569e+11 </wgt>
<wgt id='1408'> +2.8038291e+11 </wgt>
<wgt id='1409'> +2.7303588e+11 </wgt>
<wgt id='1410'> +2.7122820e+11 </wgt>
<wgt id='1411'> +2.7582492e+11 </wgt>
<wgt id='1412'> +2.7442970e+11 </wgt>
<wgt id='1413'> +2.7408657e+11 </wgt>
<wgt id='1414'> +2.7836781e+11 </wgt>
<wgt id='1415'> +2.8014776e+11 </wgt>
<wgt id='1416'> +2.7864889e+11 </wgt>
<wgt id='1417'> +2.7125405e+11 </wgt>
<wgt id='1418'> +2.7680731e+11 </wgt>
<wgt id='1419'> +2.7986313e+11 </wgt>
<wgt id='1420'> +2.7456605e+11 </wgt>
<wgt id='1421'> +2.8222716e+11 </wgt>
<wgt id='1422'> +2.6910470e+11 </wgt>
<wgt id='1423'> +2.8106968e+11 </wgt>
<wgt id='1424'> +2.7727942e+11 </wgt>
<wgt id='1425'> +2.7664107e+11 </wgt>
<wgt id='1426'> +2.7874607e+11 </wgt>
<wgt id='1427'> +2.7574688e+11 </wgt>
<wgt id='1428'> +2.7560773e+11 </wgt>
<wgt id='1429'> +2.7423686e+11 </wgt>
<wgt id='1430'> +2.7192836e+11 </wgt>
<wgt id='1431'> +2.7110421e+11 </wgt>
<wgt id='1432'> +2.7639312e+11 </wgt>
<wgt id='1433'> +2.7514162e+11 </wgt>
<wgt id='1434'> +2.8343248e+11 </wgt>
<wgt id='1435'> +2.7508950e+11 </wgt>
<wgt id='1436'> +2.7990467e+11 </wgt>
<wgt id='1437'> +2.7720441e+11 </wgt>
<wgt id='1438'> +2.7492037e+11 </wgt>
<wgt id='1439'> +2.7876444e+11 </wgt>
<wgt id='1440'> +2.7946346e+11 </wgt>
<wgt id='1441'> +2.7448360e+11 </wgt>
<wgt id='1442'> +2.8204823e+11 </wgt>
<wgt id='1443'> +2.7389600e+11 </wgt>
<wgt id='1444'> +2.7677709e+11 </wgt>
<wgt id='1445'> +2.7785884e+11 </wgt>
<wgt id='1446'> +2.8030179e+11 </wgt>
<wgt id='1447'> +2.7314921e+11 </wgt>
<wgt id='1448'> +2.7852706e+11 </wgt>
<wgt id='1449'> +2.7842871e+11 </wgt>
<wgt id='1450'> +2.7500733e+11 </wgt>
<wgt id='1451'> +2.7748746e+11 </wgt>
<wgt id='1452'> +2.7860354e+11 </wgt>
<wgt id='1453'> +2.7888441e+11 </wgt>
<wgt id='1454'> +2.6875990e+11 </wgt>
<wgt id='1455'> +2.7509772e+11 </wgt>
<wgt id='1456'> +2.7519135e+11 </wgt>
<wgt id='1457'> +2.7503721e+11 </wgt>
<wgt id='1458'> +2.7949198e+11 </wgt>
<wgt id='1459'> +3.0760607e+11 </wgt>
<wgt id='1460'> +3.0279514e+11 </wgt>
<wgt id='1461'> +3.5420700e+11 </wgt>
<wgt id='1462'> +2.9895992e+11 </wgt>
<wgt id='1463'> +2.9919791e+11 </wgt>
<wgt id='1464'> +2.9865469e+11 </wgt>
<wgt id='1465'> +2.9902334e+11 </wgt>
<wgt id='1466'> +2.9890197e+11 </wgt>
<wgt id='1467'> +2.9910410e+11 </wgt>
<wgt id='1468'> +2.9872334e+11 </wgt>
<wgt id='1469'> +2.9851845e+11 </wgt>
<wgt id='1470'> +2.9931846e+11 </wgt>
<wgt id='1471'> +2.9942531e+11 </wgt>
<wgt id='1472'> +2.9848058e+11 </wgt>
<wgt id='1473'> +3.0012347e+11 </wgt>
<wgt id='1474'> +2.9784233e+11 </wgt>
<wgt id='1475'> +3.0006685e+11 </wgt>
<wgt id='1476'> +2.9817515e+11 </wgt>
<wgt id='1477'> +2.9839852e+11 </wgt>
<wgt id='1478'> +3.0027138e+11 </wgt>
<wgt id='1479'> +2.9847345e+11 </wgt>
<wgt id='1480'> +2.9930114e+11 </wgt>
<wgt id='1481'> +2.9850421e+11 </wgt>
<wgt id='1482'> +2.9957503e+11 </wgt>
<wgt id='1483'> +2.9904706e+11 </wgt>
<wgt id='1484'> +2.9883698e+11 </wgt>
<wgt id='1485'> +2.9916603e+11 </wgt>
<wgt id='1486'> +2.9846357e+11 </wgt>
<wgt id='1487'> +2.9922371e+11 </wgt>
<wgt id='1488'> +2.9862949e+11 </wgt>
<wgt id='1489'> +2.9860190e+11 </wgt>
<wgt id='1490'> +2.9993061e+11 </wgt>
<wgt id='1491'> +3.0388818e+11 </wgt>
<wgt id='1492'> +2.9621102e+11 </wgt>
<wgt id='1493'> +2.9541978e+11 </wgt>
<wgt id='1494'> +3.1005874e+11 </wgt>
<wgt id='1495'> +2.9826989e+11 </wgt>
<wgt id='1496'> +2.9970033e+11 </wgt>
<wgt id='1497'> +2.9915899e+11 </wgt>
<wgt id='1498'> +2.9868784e+11 </wgt>
<wgt id='1499'> +3.0088173e+11 </wgt>
<wgt id='1500'> +2.9790915e+11 </wgt>
<wgt id='1501'> +2.9939774e+11 </wgt>
<wgt id='1502'> +2.9780043e+11 </wgt>
<wgt id='1503'> +2.9556502e+11 </wgt>
<wgt id='1504'> +3.0262104e+11 </wgt>
<wgt id='1505'> +2.9988752e+11 </wgt>
<wgt id='1506'> +2.9806076e+11 </wgt>
<wgt id='1507'> +3.0080548e+11 </wgt>
<wgt id='1508'> +2.9699866e+11 </wgt>
<wgt id='1509'> +2.9958883e+11 </wgt>
<wgt id='1510'> +2.9625722e+11 </wgt>
<wgt id='1511'> +3.0011029e+11 </wgt>
<wgt id='1512'> +2.9861647e+11 </wgt>
<wgt id='1513'> +2.9886371e+11 </wgt>
<wgt id='1514'> +2.9906276e+11 </wgt>
<wgt id='1515'> +3.0170531e+11 </wgt>
<wgt id='1516'> +2.9919184e+11 </wgt>
<wgt id='1517'> +2.9855088e+11 </wgt>
<wgt id='1518'> +2.9936539e+11 </wgt>
<wgt id='1519'> +2.9723494e+11 </wgt>
<wgt id='1520'> +3.0018581e+11 </wgt>
<wgt id='1521'> +2.9807126e+11 </wgt>
<wgt id='1522'> +2.9948122e+11 </wgt>
<wgt id='1523'> +3.0025206e+11 </wgt>
<wgt id='1524'> +3.0040657e+11 </wgt>
<wgt id='1525'> +3.0004901e+11 </wgt>
<wgt id='1526'> +2.9993046e+11 </wgt>
<wgt id='1527'> +2.9895992e+11 </wgt>
<wgt id='1528'> +2.9854566e+11 </wgt>
<wgt id='1529'> +2.9890935e+11 </wgt>
<wgt id='1530'> +2.9513464e+11 </wgt>
<wgt id='1531'> +2.9742750e+11 </wgt>
<wgt id='1532'> +2.9528762e+11 </wgt>
<wgt id='1533'> +2.9263301e+11 </wgt>
<wgt id='1534'> +2.9585732e+11 </wgt>
<wgt id='1535'> +2.9992336e+11 </wgt>
<wgt id='1536'> +2.9485213e+11 </wgt>
<wgt id='1537'> +2.9757537e+11 </wgt>
<wgt id='1538'> +2.9419285e+11 </wgt>
<wgt id='1539'> +3.0318242e+11 </wgt>
<wgt id='1540'> +2.9706947e+11 </wgt>
<wgt id='1541'> +2.9821891e+11 </wgt>
<wgt id='1542'> +2.9743707e+11 </wgt>
<wgt id='1543'> +2.9874934e+11 </wgt>
<wgt id='1544'> +2.9555205e+11 </wgt>
<wgt id='1545'> +2.9542249e+11 </wgt>
<wgt id='1546'> +2.9348895e+11 </wgt>
<wgt id='1547'> +2.9974691e+11 </wgt>
<wgt id='1548'> +2.9563456e+11 </wgt>
<wgt id='1549'> +2.9393176e+11 </wgt>
<wgt id='1550'> +2.9850489e+11 </wgt>
<wgt id='1551'> +2.9801251e+11 </wgt>
<wgt id='1552'> +2.9700553e+11 </wgt>
<wgt id='1553'> +2.9991666e+11 </wgt>
<wgt id='1554'> +2.9734978e+11 </wgt>
<wgt id='1555'> +2.9814240e+11 </wgt>
<wgt id='1556'> +2.9978309e+11 </wgt>
<wgt id='1557'> +2.9640246e+11 </wgt>
<wgt id='1558'> +2.9756266e+11 </wgt>
<wgt id='1559'> +2.9517182e+11 </wgt>
<wgt id='1560'> +2.9615850e+11 </wgt>
<wgt id='1561'> +2.9420045e+11 </wgt>
<wgt id='1562'> +2.9605098e+11 </wgt>
<wgt id='1563'> +2.9750641e+11 </wgt>
<wgt id='1564'> +2.9699589e+11 </wgt>
<wgt id='1565'> +2.9957075e+11 </wgt>
<wgt id='1566'> +2.9738298e+11 </wgt>
<wgt id='1567'> +3.0060601e+11 </wgt>
<wgt id='1568'> +2.9734368e+11 </wgt>
<wgt id='1569'> +2.9702988e+11 </wgt>
<wgt id='1570'> +3.0457584e+11 </wgt>
<wgt id='1571'> +2.9732092e+11 </wgt>
<wgt id='1572'> +2.9947983e+11 </wgt>
<wgt id='1573'> +3.0084133e+11 </wgt>
<wgt id='1574'> +2.6160356e+11 </wgt>
<wgt id='1575'> +2.6167405e+11 </wgt>
<wgt id='1576'> +2.6153571e+11 </wgt>
<wgt id='1577'> +2.6162173e+11 </wgt>
<wgt id='1578'> +2.6220612e+11 </wgt>
<wgt id='1579'> +2.6244618e+11 </wgt>
<wgt id='1580'> +2.6221667e+11 </wgt>
<wgt id='1581'> +2.6102420e+11 </wgt>
<wgt id='1582'> +2.6073040e+11 </wgt>
<wgt id='1583'> +2.6115637e+11 </wgt>
<wgt id='1584'> +2.6217736e+11 </wgt>
<wgt id='1585'> +2.6180886e+11 </wgt>
<wgt id='1586'> +2.6065139e+11 </wgt>
<wgt id='1587'> +2.6087265e+11 </wgt>
<wgt id='1588'> +2.6038982e+11 </wgt>
<wgt id='1589'> +2.6133109e+11 </wgt>
<wgt id='1590'> +2.6143028e+11 </wgt>
<wgt id='1591'> +2.6167574e+11 </wgt>
<wgt id='1592'> +2.6058898e+11 </wgt>
<wgt id='1593'> +2.6066444e+11 </wgt>
<wgt id='1594'> +2.6249595e+11 </wgt>
<wgt id='1595'> +2.5927083e+11 </wgt>
<wgt id='1596'> +2.6540433e+11 </wgt>
<wgt id='1597'> +2.6336881e+11 </wgt>
<wgt id='1598'> +2.6356123e+11 </wgt>
<wgt id='1599'> +2.5877197e+11 </wgt>
<wgt id='1600'> +2.6618605e+11 </wgt>
<wgt id='1601'> +2.6374881e+11 </wgt>
<wgt id='1602'> +2.6164983e+11 </wgt>
<wgt id='1603'> +2.7319822e+11 </wgt>
<wgt id='1604'> +2.6168949e+11 </wgt>
</rwgt>
</event>
<event>
 9      1 +2.8343000e+11 1.39999900e+03 7.81738600e-03 7.88881200e-02
       21 -1    0    0  504  503 +0.0000000000e+00 +0.0000000000e+00 +5.7431464529e+02 5.7431464529e+02 0.0000000000e+00 0.0000e+00 -1.0000e+00
       21 -1    0    0  503  504 -0.0000000000e+00 -0.0000000000e+00 -8.5319019783e+02 8.5319019783e+02 0.0000000000e+00 0.0000e+00 -1.0000e+00
       45  2    1    2    0    0 -2.8421709430e-14 +5.6843418861e-14 -2.7887555254e+02 1.4275048431e+03 1.3999994655e+03 0.0000e+00 0.0000e+00
       25  2    3    3    0    0 +2.2457090829e+02 -3.4398401474e+02 +4.2717995805e+02 6.0569459401e+02 1.2500451750e+02 0.0000e+00 0.0000e+00
       35  2    3    3    0    0 -2.2457090829e+02 +3.4398401474e+02 -7.0605551059e+02 8.2181024912e+02 9.0003368085e+01 0.0000e+00 0.0000e+00
        5  1    5    5  501    0 -8.5009325092e+01 +8.7512145010e+01 -1.4697246338e+02 1.9105921507e+02 4.2140000000e+00 0.0000e+00 -1.0000e+00
       -5  1    5    5    0  501 -1.3956158320e+02 +2.5647186973e+02 -5.5908304721e+02 6.3075103404e+02 4.2140000000e+00 0.0000e+00 -1.0000e+00
        5  1    4    4  502    0 -1.4224866517e+00 -8.7115141910e+01 +8.8581979128e+01 1.2432053829e+02 4.2140000000e+00 0.0000e+00 -1.0000e+00
       -5  1    4    4    0  502 +2.2599339494e+02 -2.5686887283e+02 +3.3859797893e+02 4.8137405572e+02 4.2140000000e+00 0.0000e+00 -1.0000e+00
<mgrwt>
<rscale>  0 0.13999995E+04</rscale>
<asrwt>0</asrwt>
<pdfrwt beam="1">  1       21 0.88356100E-01 0.13999995E+04</pdfrwt>
<pdfrwt beam="2">  1       21 0.13126003E+00 0.13999995E+04</pdfrwt>
<totfact> 0.34725927E+02</totfact>
</mgrwt>
<rwgt>
<wgt id='1001'> +2.8343000e+11 </wgt>
<wgt id='1002'> +3.0795074e+11 </wgt>
<wgt id='1003'> +3.0794266e+11 </wgt>
<wgt id='1004'> +3.4723228e+11 </wgt>
<wgt id='1005'> +2.8343000e+11 </wgt>
<wgt id='1006'> +2.8343000e+11 </wgt>
<wgt id='1007'> +3.0795074e+11 </wgt>
<wgt id='1008'> +3.0794266e+11 </wgt>
<wgt id='1009'> +3.4723228e+11 </wgt>
<wgt id='1010'> +2.8343000e+11 </wgt>
<wgt id='1011'> +2.8343000e+11 </wgt>
<wgt id='1012'> +3.0795074e+11 </wgt>
<wgt id='1013'> +3.0794266e+11 </wgt>
<wgt id='1014'> +3.4723228e+11 </wgt>
<wgt id='1015'> +2.8343000e+11 </wgt>
<wgt id='1016'> +2.5458911e+11 </wgt>
<wgt id='1017'> +2.7519876e+11 </wgt>
<wgt id='1018'> +2.7519201e+11 </wgt>
<wgt id='1019'> +3.0794266e+11 </wgt>
<wgt id='1020'> +2.5458911e+11 </wgt>
<wgt id='1021'> +2.5458911e+11 </wgt>
<wgt id='1022'> +2.7519876e+11 </wgt>
<wgt id='1023'> +2.7519201e+11 </wgt>
<wgt id='1024'> +3.0794266e+11 </wgt>
<wgt id='1025'> +2.5458911e+11 </wgt>
<wgt id='1026'> +2.5458911e+11 </wgt>
<wgt id='1027'> +2.7519876e+11 </wgt>
<wgt id='1028'> +2.7519201e+11 </wgt>
<wgt id='1029'> +3.0794266e+11 </wgt>
<wgt id='1030'> +2.5458911e+11 </wgt>
<wgt id='1031'> +3.1781308e+11 </wgt>
<wgt id='1032'> +3.4724198e+11 </wgt>
<wgt id='1033'> +3.4723228e+11 </wgt>
<wgt id='1034'> +3.9495450e+11 </wgt>
<wgt id='1035'> +3.1781308e+11 </wgt>
<wgt id='1036'> +3.1781308e+11 </wgt>
<wgt id='1037'> +3.4724198e+11 </wgt>
<wgt id='1038'> +3.4723228e+11 </wgt>
<wgt id='1039'> +3.9495450e+11 </wgt>
<wgt id='1040'> +3.1781308e+11 </wgt>
<wgt id='1041'> +3.1781308e+11 </wgt>
<wgt id='1042'> +3.4724198e+11 </wgt>
<wgt id='1043'> +3.4723228e+11 </wgt>
<wgt id='1044'> +3.9495450e+11 </wgt>
<wgt id='1045'> +3.1781308e+11 </wgt>
<wgt id='1046'> +2.8343000e+11 </wgt>
<wgt id='1047'> +2.8343000e+11 </wgt>
<wgt id='1048'> +2.8343000e+11 </wgt>
<wgt id='1049'> +2.8238797e+11 </wgt>
<wgt id='1050'> +2.8311069e+11 </wgt>
<wgt id='1051'> +2.8360809e+11 </wgt>
<wgt id='1052'> +2.8426400e+11 </wgt>
<wgt id='1053'> +2.8185602e+11 </wgt>
<wgt id='1054'> +2.8384207e+11 </wgt>
<wgt id='1055'> +2.8225648e+11 </wgt>
<wgt id='1056'> +2.8190495e+11 </wgt>
<wgt id='1057'> +2.8409076e+11 </wgt>
<wgt id='1058'> +2.8301148e+11 </wgt>
<wgt id='1059'> +2.8536336e+11 </wgt>
<wgt id='1060'> +2.8367212e+11 </wgt>
<wgt id='1061'> +2.8413262e+11 </wgt>
<wgt id='1062'> +2.8406603e+11 </wgt>
<wgt id='1063'> +2.8383187e+11 </wgt>
<wgt id='1064'> +2.8454092e+11 </wgt>
<wgt id='1065'> +2.8481276e+11 </wgt>
<wgt id='1066'> +2.8177802e+11 </wgt>
<wgt id='1067'> +2.8010804e+11 </wgt>
<wgt id='1068'> +2.8365974e+11 </wgt>
<wgt id='1069'> +2.8268964e+11 </wgt>
<wgt id='1070'> +2.8356605e+11 </wgt>
<wgt id='1071'> +2.8452155e+11 </wgt>
<wgt id='1072'> +2.8127032e+11 </wgt>
<wgt id='1073'> +2.8401096e+11 </wgt>
<wgt id='1074'> +2.8320999e+11 </wgt>
<wgt id='1075'> +2.8445698e+11 </wgt>
<wgt id='1076'> +2.8276512e+11 </wgt>
<wgt id='1077'> +2.8271227e+11 </wgt>
<wgt id='1078'> +2.8410522e+11 </wgt>
<wgt id='1079'> +2.8190845e+11 </wgt>
<wgt id='1080'> +2.8288950e+11 </wgt>
<wgt id='1081'> +2.8298165e+11 </wgt>
<wgt id='1082'> +2.8208302e+11 </wgt>
<wgt id='1083'> +2.8394070e+11 </wgt>
<wgt id='1084'> +2.8404476e+11 </wgt>
<wgt id='1085'> +2.8283329e+11 </wgt>
<wgt id='1086'> +2.8289729e+11 </wgt>
<wgt id='1087'> +2.8308895e+11 </wgt>
<wgt id='1088'> +2.8294664e+11 </wgt>
<wgt id='1089'> +2.8278352e+11 </wgt>
<wgt id='1090'> +2.8414457e+11 </wgt>
<wgt id='1091'> +2.8351631e+11 </wgt>
<wgt id='1092'> +2.8367233e+11 </wgt>
<wgt id='1093'> +2.8331042e+11 </wgt>
<wgt id='1094'> +2.8285699e+11 </wgt>
<wgt id='1095'> +2.8356187e+11 </wgt>
<wgt id='1096'> +2.8335308e+11 </wgt>
<wgt id='1097'> +2.8302307e+11 </wgt>
<wgt id='1098'> +2.8308417e+11 </wgt>
<wgt id='1099'> +2.8319043e+11 </wgt>
<wgt id='1100'> +2.8401108e+11 </wgt>
<wgt id='1101'> +2.8340539e+11 </wgt>
<wgt id='1102'> +2.8327878e+11 </wgt>
<wgt id='1103'> +2.8310122e+11 </wgt>
<wgt id='1104'> +2.8311435e+11 </wgt>
<wgt id='1105'> +2.8354837e+11 </wgt>
<wgt id='1106'> +2.8374566e+11 </wgt>
<wgt id='1107'> +2.8333174e+11 </wgt>
<wgt id='1108'> +2.8333799e+11 </wgt>
<wgt id='1109'> +2.8322140e+11 </wgt>
<wgt id='1110'> +2.8375464e+11 </wgt>
<wgt id='1111'> +2.8356083e+11 </wgt>
<wgt id='1112'> +2.8339541e+11 </wgt>
<wgt id='1113'> +2.8374207e+11 </wgt>
<wgt id='1114'> +2.8311398e+11 </wgt>
<wgt id='1115'> +2.8322649e+11 </wgt>
<wgt id='1116'> +2.8376527e+11 </wgt>
<wgt id='1117'> +2.8336846e+11 </wgt>
<wgt id='1118'> +2.8352838e+11 </wgt>
<wgt id='1119'> +2.8324110e+11 </wgt>
<wgt id='1120'> +2.8327177e+11 </wgt>
<wgt id='1121'> +2.8348401e+11 </wgt>
<wgt id='1122'> +2.8322241e+11 </wgt>
<wgt id='1123'> +2.8337800e+11 </wgt>
<wgt id='1124'> +2.8336484e+11 </wgt>
<wgt id='1125'> +2.8358895e+11 </wgt>
<wgt id='1126'> +2.8353753e+11 </wgt>
<wgt id='1127'> +2.8332425e+11 </wgt>
<wgt id='1128'> +2.8346209e+11 </wgt>
<wgt id='1129'> +2.8337470e+11 </wgt>
<wgt id='1130'> +2.8346056e+11 </wgt>
<wgt id='1131'> +2.8371490e+11 </wgt>
<wgt id='1132'> +2.8334951e+11 </wgt>
<wgt id='1133'> +2.8350736e+11 </wgt>
<wgt id='1134'> +2.8340747e+11 </wgt>
<wgt id='1135'> +2.8347327e+11 </wgt>
<wgt id='1136'> +2.8338787e+11 </wgt>
<wgt id='1137'> +2.8327751e+11 </wgt>
<wgt id='1138'> +2.8354754e+11 </wgt>
<wgt id='1139'> +2.8347447e+11 </wgt>
<wgt id='1140'> +2.8363600e+11 </wgt>
<wgt id='1141'> +2.8329099e+11 </wgt>
<wgt id='1142'> +2.8350450e+11 </wgt>
<wgt id='1143'> +2.8359943e+11 </wgt>
<wgt id='1144'> +2.8334303e+11 </wgt>
<wgt id='1145'> +2.8355867e+11 </wgt>
<wgt id='1146'> +2.8341745e+11 </wgt>
<wgt id='1147'> +2.8348014e+11 </wgt>
<wgt id='1148'> +2.8343000e+11 </wgt>
<wgt id='1149'> +2.8343000e+11 </wgt>
<wgt id='1150'> +2.9291298e+11 </wgt>
<wgt id='1151'> +2.8049306e+11 </wgt>
<wgt id='1152'> +2.8359566e+11 </wgt>
<wgt id='1153'> +2.8734896e+11 </wgt>
<wgt id='1154'> +2.8657783e+11 </wgt>
<wgt id='1155'> +2.8911142e+11 </wgt>
<wgt id='1156'> +2.7676675e+11 </wgt>
<wgt id='1157'> +2.7603784e+11 </wgt>
<wgt id='1158'> +2.7750061e+11 </wgt>
<wgt id='1159'> +2.9707395e+11 </wgt>
<wgt id='1160'> +2.8223133e+11 </wgt>
<wgt id='1161'> +2.8551919e+11 </wgt>
<wgt id='1162'> +2.7827881e+11 </wgt>
<wgt id='1163'> +2.8660642e+11 </wgt>
<wgt id='1164'> +2.6839760e+11 </wgt>
<wgt id='1165'> +2.7876360e+11 </wgt>
<wgt id='1166'> +2.8456085e+11 </wgt>
<wgt id='1167'> +2.7945106e+11 </wgt>
<wgt id='1168'> +2.7615550e+11 </wgt>
<wgt id='1169'> +2.7583921e+11 </wgt>
<wgt id='1170'> +2.7781723e+11 </wgt>
<wgt id='1171'> +2.7326247e+11 </wgt>
<wgt id='1172'> +2.7706344e+11 </wgt>
<wgt id='1173'> +2.8736929e+11 </wgt>
<wgt id='1174'> +2.7906923e+11 </wgt>
<wgt id='1175'> +2.7580581e+11 </wgt>
<wgt id='1176'> +2.8634663e+11 </wgt>
<wgt id='1177'> +2.7889553e+11 </wgt>
<wgt id='1178'> +2.8308753e+11 </wgt>
<wgt id='1179'> +2.8052969e+11 </wgt>
<wgt id='1180'> +2.8602906e+11 </wgt>
<wgt id='1181'> +2.7880243e+11 </wgt>
<wgt id='1182'> +2.8118888e+11 </wgt>
<wgt id='1183'> +2.9465297e+11 </wgt>
<wgt id='1184'> +2.7886851e+11 </wgt>
<wgt id='1185'> +2.8279994e+11 </wgt>
<wgt id='1186'> +2.7280054e+11 </wgt>
<wgt id='1187'> +2.8532074e+11 </wgt>
<wgt id='1188'> +2.7996272e+11 </wgt>
<wgt id='1189'> +2.8485285e+11 </wgt>
<wgt id='1190'> +2.8361436e+11 </wgt>
<wgt id='1191'> +2.9427463e+11 </wgt>
<wgt id='1192'> +2.9125620e+11 </wgt>
<wgt id='1193'> +2.9458635e+11 </wgt>
<wgt id='1194'> +2.8392995e+11 </wgt>
<wgt id='1195'> +2.8368423e+11 </wgt>
<wgt id='1196'> +2.9218090e+11 </wgt>
<wgt id='1197'> +2.9342961e+11 </wgt>
<wgt id='1198'> +2.7707137e+11 </wgt>
<wgt id='1199'> +2.8347190e+11 </wgt>
<wgt id='1200'> +2.8310715e+11 </wgt>
<wgt id='1201'> +2.7941400e+11 </wgt>
<wgt id='1202'> +2.8827788e+11 </wgt>
<wgt id='1203'> +2.7815425e+11 </wgt>
<wgt id='1204'> +2.8729158e+11 </wgt>
<wgt id='1205'> +2.8468036e+11 </wgt>
<wgt id='1206'> +2.7702140e+11 </wgt>
<wgt id='1207'> +2.9266147e+11 </wgt>
<wgt id='1208'> +2.7232910e+11 </wgt>
<wgt id='1209'> +2.7945554e+11 </wgt>
<wgt id='1210'> +2.8118999e+11 </wgt>
<wgt id='1211'> +2.8576767e+11 </wgt>
<wgt id='1212'> +2.8346312e+11 </wgt>
<wgt id='1213'> +2.9265785e+11 </wgt>
<wgt id='1214'> +2.7586428e+11 </wgt>
<wgt id='1215'> +2.9089005e+11 </wgt>
<wgt id='1216'> +2.8554297e+11 </wgt>
<wgt id='1217'> +2.7606477e+11 </wgt>
<wgt id='1218'> +2.8470884e+11 </wgt>
<wgt id='1219'> +2.9419292e+11 </wgt>
<wgt id='1220'> +2.7745312e+11 </wgt>
<wgt id='1221'> +2.7530872e+11 </wgt>
<wgt id='1222'> +2.7998604e+11 </wgt>
<wgt id='1223'> +2.7266548e+11 </wgt>
<wgt id='1224'> +2.8343376e+11 </wgt>
<wgt id='1225'> +2.8825456e+11 </wgt>
<wgt id='1226'> +2.8990109e+11 </wgt>
<wgt id='1227'> +2.7430939e+11 </wgt>
<wgt id='1228'> +2.8148504e+11 </wgt>
<wgt id='1229'> +3.0260335e+11 </wgt>
<wgt id='1230'> +2.9338701e+11 </wgt>
<wgt id='1231'> +2.7876360e+11 </wgt>
<wgt id='1232'> +2.8867398e+11 </wgt>
<wgt id='1233'> +2.7775756e+11 </wgt>
<wgt id='1234'> +2.7641918e+11 </wgt>
<wgt id='1235'> +3.0226135e+11 </wgt>
<wgt id='1236'> +2.7664734e+11 </wgt>
<wgt id='1237'> +2.8951836e+11 </wgt>
<wgt id='1238'> +2.8844195e+11 </wgt>
<wgt id='1239'> +2.9088321e+11 </wgt>
<wgt id='1240'> +2.8434111e+11 </wgt>
<wgt id='1241'> +2.8239427e+11 </wgt>
<wgt id='1242'> +2.8049847e+11 </wgt>
<wgt id='1243'> +2.8836503e+11 </wgt>
<wgt id='1244'> +2.8175275e+11 </wgt>
<wgt id='1245'> +2.8140027e+11 </wgt>
<wgt id='1246'> +3.0672835e+11 </wgt>
<wgt id='1247'> +2.8320255e+11 </wgt>
<wgt id='1248'> +2.7487615e+11 </wgt>
<wgt id='1249'> +2.7723435e+11 </wgt>
<wgt id='1250'> +2.9221591e+11 </wgt>
<wgt id='1251'> +2.9817827e+11 </wgt>
<wgt id='1252'> +2.8650034e+11 </wgt>
<wgt id='1253'> +2.8498223e+11 </wgt>
<wgt id='1254'> +2.8783736e+11 </wgt>
<wgt id='1255'> +2.9771688e+11 </wgt>
<wgt id='1256'> +2.9578171e+11 </wgt>
<wgt id='1257'> +2.8708139e+11 </wgt>
<wgt id='1258'> +2.9846306e+11 </wgt>
<wgt id='1259'> +2.9466862e+11 </wgt>
<wgt id='1260'> +3.2468105e+11 </wgt>
<wgt id='1261'> +3.1293276e+11 </wgt>
<wgt id='1262'> +2.8924319e+11 </wgt>
<wgt id='1263'> +2.9623368e+11 </wgt>
<wgt id='1264'> +2.9821936e+11 </wgt>
<wgt id='1265'> +2.9739933e+11 </wgt>
<wgt id='1266'> +2.9459374e+11 </wgt>
<wgt id='1267'> +3.1811311e+11 </wgt>
<wgt id='1268'> +2.9285883e+11 </wgt>
<wgt id='1269'> +2.8640171e+11 </wgt>
<wgt id='1270'> +2.9210486e+11 </wgt>
<wgt id='1271'> +2.7711592e+11 </wgt>
<wgt id='1272'> +2.9249604e+11 </wgt>
<wgt id='1273'> +2.9087888e+11 </wgt>
<wgt id='1274'> +2.8658264e+11 </wgt>
<wgt id='1275'> +2.9722840e+11 </wgt>
<wgt id='1276'> +2.9538366e+11 </wgt>
<wgt id='1277'> +2.9070028e+11 </wgt>
<wgt id='1278'> +2.8769912e+11 </wgt>
<wgt id='1279'> +2.8024500e+11 </wgt>
<wgt id='1280'> +2.9184410e+11 </wgt>
<wgt id='1281'> +2.8486562e+11 </wgt>
<wgt id='1282'> +2.9565624e+11 </wgt>
<wgt id='1283'> +2.9661948e+11 </wgt>
<wgt id='1284'> +3.1335549e+11 </wgt>
<wgt id='1285'> +3.0736639e+11 </wgt>
<wgt id='1286'> +3.2786962e+11 </wgt>
<wgt id='1287'> +3.0258723e+11 </wgt>
<wgt id='1288'> +3.2359258e+11 </wgt>
<wgt id='1289'> +3.1225980e+11 </wgt>
<wgt id='1290'> +3.1067003e+11 </wgt>
<wgt id='1291'> +2.7711986e+11 </wgt>
<wgt id='1292'> +2.9717922e+11 </wgt>
<wgt id='1293'> +2.9976731e+11 </wgt>
<wgt id='1294'> +3.1421678e+11 </wgt>
<wgt id='1295'> +2.9931452e+11 </wgt>
<wgt id='1296'> +3.1573137e+11 </wgt>
<wgt id='1297'> +2.9430320e+11 </wgt>
<wgt id='1298'> +2.8690161e+11 </wgt>
<wgt id='1299'> +2.9836531e+11 </wgt>
<wgt id='1300'> +2.8741099e+11 </wgt>
<wgt id='1301'> +2.7972551e+11 </wgt>
<wgt id='1302'> +2.7655874e+11 </wgt>
<wgt id='1303'> +2.9800066e+11 </wgt>
<wgt id='1304'> +3.0711955e+11 </wgt>
<wgt id='1305'> +2.9757786e+11 </wgt>
<wgt id='1306'> +3.0445761e+11 </wgt>
<wgt id='1307'> +3.0132328e+11 </wgt>
<wgt id='1308'> +3.2496402e+11 </wgt>
<wgt id='1309'> +2.9540341e+11 </wgt>
<wgt id='1310'> +3.0140510e+11 </wgt>
<wgt id='1311'> +3.0618886e+11 </wgt>
<wgt id='1312'> +2.9932613e+11 </wgt>
<wgt id='1313'> +2.9667404e+11 </wgt>
<wgt id='1314'> +3.0239638e+11 </wgt>
<wgt id='1315'> +2.8443784e+11 </wgt>
<wgt id='1316'> +2.9796008e+11 </wgt>
<wgt id='1317'> +3.0125926e+11 </wgt>
<wgt id='1318'> +2.8655101e+11 </wgt>
<wgt id='1319'> +3.0541364e+11 </wgt>
<wgt id='1320'> +3.0905359e+11 </wgt>
<wgt id='1321'> +2.9338711e+11 </wgt>
<wgt id='1322'> +2.9738389e+11 </wgt>
<wgt id='1323'> +2.9702868e+11 </wgt>
<wgt id='1324'> +3.0087007e+11 </wgt>
<wgt id='1325'> +3.1021946e+11 </wgt>
<wgt id='1326'> +3.0278943e+11 </wgt>
<wgt id='1327'> +2.9475282e+11 </wgt>
<wgt id='1328'> +3.0086899e+11 </wgt>
<wgt id='1329'> +2.9698212e+11 </wgt>
<wgt id='1330'> +2.8937898e+11 </wgt>
<wgt id='1331'> +3.1871303e+11 </wgt>
<wgt id='1332'> +2.8617942e+11 </wgt>
<wgt id='1333'> +3.0003567e+11 </wgt>
<wgt id='1334'> +3.1318668e+11 </wgt>
<wgt id='1335'> +2.9184540e+11 </wgt>
<wgt id='1336'> +3.0278736e+11 </wgt>
<wgt id='1337'> +3.0768282e+11 </wgt>
<wgt id='1338'> +2.8884571e+11 </wgt>
<wgt id='1339'> +3.1904311e+11 </wgt>
<wgt id='1340'> +3.0113521e+11 </wgt>
<wgt id='1341'> +3.0543854e+11 </wgt>
<wgt id='1342'> +3.1347461e+11 </wgt>
<wgt id='1343'> +3.0919866e+11 </wgt>
<wgt id='1344'> +3.0412714e+11 </wgt>
<wgt id='1345'> +2.7772059e+11 </wgt>
<wgt id='1346'> +2.9915682e+11 </wgt>
<wgt id='1347'> +2.8644825e+11 </wgt>
<wgt id='1348'> +2.8721846e+11 </wgt>
<wgt id='1349'> +2.8849787e+11 </wgt>
<wgt id='1350'> +3.0025294e+11 </wgt>
<wgt id='1351'> +2.9539738e+11 </wgt>
<wgt id='1352'> +2.9998008e+11 </wgt>
<wgt id='1353'> +2.9665318e+11 </wgt>
<wgt id='1354'> +3.0627514e+11 </wgt>
<wgt id='1355'> +2.7551437e+11 </wgt>
<wgt id='1356'> +2.7825377e+11 </wgt>
<wgt id='1357'> +2.7627412e+11 </wgt>
<wgt id='1358'> +2.7302851e+11 </wgt>
<wgt id='1359'> +2.7616962e+11 </wgt>
<wgt id='1360'> +2.6897851e+11 </wgt>
<wgt id='1361'> +2.7541719e+11 </wgt>
<wgt id='1362'> +2.7800268e+11 </wgt>
<wgt id='1363'> +2.6973883e+11 </wgt>
<wgt id='1364'> +2.8149311e+11 </wgt>
<wgt id='1365'> +2.7320559e+11 </wgt>
<wgt id='1366'> +2.7515821e+11 </wgt>
<wgt id='1367'> +2.7631147e+11 </wgt>
<wgt id='1368'> +2.7559945e+11 </wgt>
<wgt id='1369'> +2.7946926e+11 </wgt>
<wgt id='1370'> +2.7364979e+11 </wgt>
<wgt id='1371'> +2.7364326e+11 </wgt>
<wgt id='1372'> +2.7978171e+11 </wgt>
<wgt id='1373'> +2.7907195e+11 </wgt>
<wgt id='1374'> +2.6743015e+11 </wgt>
<wgt id='1375'> +2.7467731e+11 </wgt>
<wgt id='1376'> +2.7618765e+11 </wgt>
<wgt id='1377'> +2.7559759e+11 </wgt>
<wgt id='1378'> +2.7172121e+11 </wgt>
<wgt id='1379'> +2.7398487e+11 </wgt>
<wgt id='1380'> +2.7378962e+11 </wgt>
<wgt id='1381'> +2.8078070e+11 </wgt>
<wgt id='1382'> +2.7508047e+11 </wgt>
<wgt id='1383'> +2.7520193e+11 </wgt>
<wgt id='1384'> +2.7368254e+11 </wgt>
<wgt id='1385'> +2.7374434e+11 </wgt>
<wgt id='1386'> +2.7710218e+11 </wgt>
<wgt id='1387'> +2.7441968e+11 </wgt>
<wgt id='1388'> +2.7165180e+11 </wgt>
<wgt id='1389'> +2.7397791e+11 </wgt>
<wgt id='1390'> +2.7483270e+11 </wgt>
<wgt id='1391'> +2.7326893e+11 </wgt>
<wgt id='1392'> +2.7332301e+11 </wgt>
<wgt id='1393'> +2.7378471e+11 </wgt>
<wgt id='1394'> +2.7330728e+11 </wgt>
<wgt id='1395'> +2.7119117e+11 </wgt>
<wgt id='1396'> +2.7647542e+11 </wgt>
<wgt id='1397'> +2.7617543e+11 </wgt>
<wgt id='1398'> +2.7627750e+11 </wgt>
<wgt id='1399'> +2.7137086e+11 </wgt>
<wgt id='1400'> +2.7238221e+11 </wgt>
<wgt id='1401'> +2.7431054e+11 </wgt>
<wgt id='1402'> +2.7870157e+11 </wgt>
<wgt id='1403'> +2.7903610e+11 </wgt>
<wgt id='1404'> +2.7384495e+11 </wgt>
<wgt id='1405'> +2.8163194e+11 </wgt>
<wgt id='1406'> +2.7550253e+11 </wgt>
<wgt id='1407'> +2.7613319e+11 </wgt>
<wgt id='1408'> +2.7889085e+11 </wgt>
<wgt id='1409'> +2.7321891e+11 </wgt>
<wgt id='1410'> +2.7258879e+11 </wgt>
<wgt id='1411'> +2.7520566e+11 </wgt>
<wgt id='1412'> +2.7422102e+11 </wgt>
<wgt id='1413'> +2.7253443e+11 </wgt>
<wgt id='1414'> +2.7737972e+11 </wgt>
<wgt id='1415'> +2.8097402e+11 </wgt>
<wgt id='1416'> +2.7853764e+11 </wgt>
<wgt id='1417'> +2.6922671e+11 </wgt>
<wgt id='1418'> +2.7697302e+11 </wgt>
<wgt id='1419'> +2.7912747e+11 </wgt>
<wgt id='1420'> +2.7464383e+11 </wgt>
<wgt id='1421'> +2.8156827e+11 </wgt>
<wgt id='1422'> +2.6809368e+11 </wgt>
<wgt id='1423'> +2.8071461e+11 </wgt>
<wgt id='1424'> +2.7659815e+11 </wgt>
<wgt id='1425'> +2.7582047e+11 </wgt>
<wgt id='1426'> +2.7882933e+11 </wgt>
<wgt id='1427'> +2.7542409e+11 </wgt>
<wgt id='1428'> +2.7530317e+11 </wgt>
<wgt id='1429'> +2.7190289e+11 </wgt>
<wgt id='1430'> +2.7090097e+11 </wgt>
<wgt id='1431'> +2.7069284e+11 </wgt>
<wgt id='1432'> +2.7710911e+11 </wgt>
<wgt id='1433'> +2.7583330e+11 </wgt>
<wgt id='1434'> +2.8238433e+11 </wgt>
<wgt id='1435'> +2.7459999e+11 </wgt>
<wgt id='1436'> +2.7955405e+11 </wgt>
<wgt id='1437'> +2.7785138e+11 </wgt>
<wgt id='1438'> +2.7373592e+11 </wgt>
<wgt id='1439'> +2.7663682e+11 </wgt>
<wgt id='1440'> +2.7985316e+11 </wgt>
<wgt id='1441'> +2.7507892e+11 </wgt>
<wgt id='1442'> +2.8279129e+11 </wgt>
<wgt id='1443'> +2.7362031e+11 </wgt>
<wgt id='1444'> +2.7431330e+11 </wgt>
<wgt id='1445'> +2.7821948e+11 </wgt>
<wgt id='1446'> +2.7816279e+11 </wgt>
<wgt id='1447'> +2.7172771e+11 </wgt>
<wgt id='1448'> +2.7788496e+11 </wgt>
<wgt id='1449'> +2.7710415e+11 </wgt>
<wgt id='1450'> +2.7382754e+11 </wgt>
<wgt id='1451'> +2.7682682e+11 </wgt>
<wgt id='1452'> +2.7851955e+11 </wgt>
<wgt id='1453'> +2.7998963e+11 </wgt>
<wgt id='1454'> +2.6873534e+11 </wgt>
<wgt id='1455'> +2.7470690e+11 </wgt>
<wgt id='1456'> +2.7472592e+11 </wgt>
<wgt id='1457'> +2.7431426e+11 </wgt>
<wgt id='1458'> +2.7772284e+11 </wgt>
<wgt id='1459'> +3.0576064e+11 </wgt>
<wgt id='1460'> +3.0105645e+11 </wgt>
<wgt id='1461'> +3.4906963e+11 </wgt>
<wgt id='1462'> +2.9938632e+11 </wgt>
<wgt id='1463'> +2.9963354e+11 </wgt>
<wgt id='1464'> +2.9906929e+11 </wgt>
<wgt id='1465'> +2.9944817e+11 </wgt>
<wgt id='1466'> +2.9932983e+11 </wgt>
<wgt id='1467'> +2.9954516e+11 </wgt>
<wgt id='1468'> +2.9912572e+11 </wgt>
<wgt id='1469'> +2.9893793e+11 </wgt>
<wgt id='1470'> +2.9975052e+11 </wgt>
<wgt id='1471'> +2.9986185e+11 </wgt>
<wgt id='1472'> +2.9889655e+11 </wgt>
<wgt id='1473'> +3.0053935e+11 </wgt>
<wgt id='1474'> +2.9827886e+11 </wgt>
<wgt id='1475'> +3.0048595e+11 </wgt>
<wgt id='1476'> +2.9860672e+11 </wgt>
<wgt id='1477'> +2.9881557e+11 </wgt>
<wgt id='1478'> +3.0071958e+11 </wgt>
<wgt id='1479'> +2.9882954e+11 </wgt>
<wgt id='1480'> +2.9977534e+11 </wgt>
<wgt id='1481'> +2.9895906e+11 </wgt>
<wgt id='1482'> +2.9996259e+11 </wgt>
<wgt id='1483'> +2.9948237e+11 </wgt>
<wgt id='1484'> +2.9925005e+11 </wgt>
<wgt id='1485'> +2.9958860e+11 </wgt>
<wgt id='1486'> +2.9889922e+11 </wgt>
<wgt id='1487'> +2.9963832e+11 </wgt>
<wgt id='1488'> +2.9906967e+11 </wgt>
<wgt id='1489'> +2.9903379e+11 </wgt>
<wgt id='1490'> +3.0034206e+11 </wgt>
<wgt id='1491'> +3.0430536e+11 </wgt>
<wgt id='1492'> +2.9664111e+11 </wgt>
<wgt id='1493'> +2.9588168e+11 </wgt>
<wgt id='1494'> +3.1037073e+11 </wgt>
<wgt id='1495'> +2.9874195e+11 </wgt>
<wgt id='1496'> +3.0007753e+11 </wgt>
<wgt id='1497'> +2.9958500e+11 </wgt>
<wgt id='1498'> +2.9911478e+11 </wgt>
<wgt id='1499'> +3.0126290e+11 </wgt>
<wgt id='1500'> +2.9835980e+11 </wgt>
<wgt id='1501'> +2.9984688e+11 </wgt>
<wgt id='1502'> +2.9816576e+11 </wgt>
<wgt id='1503'> +2.9621053e+11 </wgt>
<wgt id='1504'> +3.0276557e+11 </wgt>
<wgt id='1505'> +3.0039525e+11 </wgt>
<wgt id='1506'> +2.9841562e+11 </wgt>
<wgt id='1507'> +3.0078459e+11 </wgt>
<wgt id='1508'> +2.9843694e+11 </wgt>
<wgt id='1509'> +2.9996930e+11 </wgt>
<wgt id='1510'> +2.9688385e+11 </wgt>
<wgt id='1511'> +3.0050198e+11 </wgt>
<wgt id='1512'> +2.9906737e+11 </wgt>
<wgt id='1513'> +2.9930488e+11 </wgt>
<wgt id='1514'> +2.9946331e+11 </wgt>
<wgt id='1515'> +3.0185054e+11 </wgt>
<wgt id='1516'> +2.9980709e+11 </wgt>
<wgt id='1517'> +2.9900812e+11 </wgt>
<wgt id='1518'> +2.9970850e+11 </wgt>
<wgt id='1519'> +2.9774360e+11 </wgt>
<wgt id='1520'> +3.0055521e+11 </wgt>
<wgt id='1521'> +2.9860013e+11 </wgt>
<wgt id='1522'> +2.9985626e+11 </wgt>
<wgt id='1523'> +3.0073764e+11 </wgt>
<wgt id='1524'> +3.0075662e+11 </wgt>
<wgt id='1525'> +3.0059900e+11 </wgt>
<wgt id='1526'> +3.0019715e+11 </wgt>
<wgt id='1527'> +2.9938632e+11 </wgt>
<wgt id='1528'> +2.9916938e+11 </wgt>
<wgt id='1529'> +2.9908631e+11 </wgt>
<wgt id='1530'> +2.9534649e+11 </wgt>
<wgt id='1531'> +2.9666502e+11 </wgt>
<wgt id='1532'> +2.9427691e+11 </wgt>
<wgt id='1533'> +2.9216725e+11 </wgt>
<wgt id='1534'> +2.9505078e+11 </wgt>
<wgt id='1535'> +2.9910589e+11 </wgt>
<wgt id='1536'> +2.9381943e+11 </wgt>
<wgt id='1537'> +2.9656870e+11 </wgt>
<wgt id='1538'> +2.9351059e+11 </wgt>
<wgt id='1539'> +3.0277347e+11 </wgt>
<wgt id='1540'> +2.9589228e+11 </wgt>
<wgt id='1541'> +2.9697208e+11 </wgt>
<wgt id='1542'> +2.9660245e+11 </wgt>
<wgt id='1543'> +2.9778125e+11 </wgt>
<wgt id='1544'> +2.9475308e+11 </wgt>
<wgt id='1545'> +2.9469400e+11 </wgt>
<wgt id='1546'> +2.9274158e+11 </wgt>
<wgt id='1547'> +2.9896800e+11 </wgt>
<wgt id='1548'> +2.9469721e+11 </wgt>
<wgt id='1549'> +2.9326728e+11 </wgt>
<wgt id='1550'> +2.9737790e+11 </wgt>
<wgt id='1551'> +2.9728509e+11 </wgt>
<wgt id='1552'> +2.9604248e+11 </wgt>
<wgt id='1553'> +2.9861060e+11 </wgt>
<wgt id='1554'> +2.9651944e+11 </wgt>
<wgt id='1555'> +2.9728898e+11 </wgt>
<wgt id='1556'> +2.9904673e+11 </wgt>
<wgt id='1557'> +2.9572590e+11 </wgt>
<wgt id='1558'> +2.9667829e+11 </wgt>
<wgt id='1559'> +2.9459165e+11 </wgt>
<wgt id='1560'> +2.9542790e+11 </wgt>
<wgt id='1561'> +2.9290442e+11 </wgt>
<wgt id='1562'> +2.9526294e+11 </wgt>
<wgt id='1563'> +2.9663083e+11 </wgt>
<wgt id='1564'> +2.9625191e+11 </wgt>
<wgt id='1565'> +2.9880544e+11 </wgt>
<wgt id='1566'> +2.9684000e+11 </wgt>
<wgt id='1567'> +3.0018341e+11 </wgt>
<wgt id='1568'> +2.9660354e+11 </wgt>
<wgt id='1569'> +2.9630364e+11 </wgt>
<wgt id='1570'> +3.0028775e+11 </wgt>
<wgt id='1571'> +2.9645242e+11 </wgt>
<wgt id='1572'> +2.9849624e+11 </wgt>
<wgt id='1573'> +2.9964516e+11 </wgt>
<wgt id='1574'> +2.6743750e+11 </wgt>
<wgt id='1575'> +2.6751027e+11 </wgt>
<wgt id='1576'> +2.6736950e+11 </wgt>
<wgt id='1577'> +2.6745592e+11 </wgt>
<wgt id='1578'> +2.6805187e+11 </wgt>
<wgt id='1579'> +2.6830167e+11 </wgt>
<wgt id='1580'> +2.6807434e+11 </wgt>
<wgt id='1581'> +2.6681262e+11 </wgt>
<wgt id='1582'> +2.6650580e+11 </wgt>
<wgt id='1583'> +2.6698695e+11 </wgt>
<wgt id='1584'> +2.6802139e+11 </wgt>
<wgt id='1585'> +2.6762936e+11 </wgt>
<wgt id='1586'> +2.6641828e+11 </wgt>
<wgt id='1587'> +2.6667269e+11 </wgt>
<wgt id='1588'> +2.6616924e+11 </wgt>
<wgt id='1589'> +2.6718039e+11 </wgt>
<wgt id='1590'> +2.6725240e+11 </wgt>
<wgt id='1591'> +2.6750613e+11 </wgt>
<wgt id='1592'> +2.6640264e+11 </wgt>
<wgt id='1593'> +2.6655853e+11 </wgt>
<wgt id='1594'> +2.6826329e+11 </wgt>
<wgt id='1595'> +2.6518325e+11 </wgt>
<wgt id='1596'> +2.7105668e+11 </wgt>
<wgt id='1597'> +2.6918129e+11 </wgt>
<wgt id='1598'> +2.6940162e+11 </wgt>
<wgt id='1599'> +2.6467571e+11 </wgt>
<wgt id='1600'> +2.7188761e+11 </wgt>
<wgt id='1601'> +2.6958122e+11 </wgt>
<wgt id='1602'> +2.6749398e+11 </wgt>
<wgt id='1603'> +2.7809498e+11 </wgt>
<wgt id='1604'> +2.6742523e+11 </wgt>
</rwgt>
</event>
<event>
 9      1 +2.8343000e+11 1.40000100e+03 7.81738600e-03 7.88881100e-02
       21 -1    0    0  504  503 +0.0000000000e+00 +0.0000000000e+00 +1.3070173844e+03 1.3070173844e+03 0.0000000000e+00 0.0000e+00 -1.0000e+00
       21 -1    0    0  503  504 -0.0000000000e+00 -0.0000000000e+00 -3.7489974183e+02 3.7489974183e+02 0.0000000000e+00 0.0000e+00 -1.0000e+00
       45  2    1    2    0    0 -5.6843418861e-14 +0.0000000000e+00 +9.3211764257e+02 1.6819171262e+03 1.4000006857e+03 0.0000e+00 0.0000e+00
       25  2    3    3    0    0 -4.3963840700e+02 +3.6952410291e+02 +5.1795816593e+00 5.8777631433e+02 1.2499670428e+02 0.0000e+00 0.0000e+00
       35  2    3    3    0    0 +4.3963840700e+02 -3.6952410291e+02 +9.2693806091e+02 1.0941408119e+03 8.9999755244e+01 0.0000e+00 0.0000e+00
        5  1    5    5  501    0 +2.9468487396e+02 -1.9901280326e+02 +5.2557007619e+02 6.3457618423e+02 4.2140000000e+00 0.0000e+00 -1.0000e+00
       -5  1    5    5    0  501 +1.4495353304e+02 -1.7051129965e+02 +4.0136798472e+02 4.5956462767e+02 4.2140000000e+00 0.0000e+00 -1.0000e+00
        5  1    4    4  502    0 -2.2266260390e+02 +1.6653579396e+02 +6.2801624318e+01 2.8508701769e+02 4.2140000000e+00 0.0000e+00 1.0000e+00
       -5  1    4    4    0  502 -2.1697580310e+02 +2.0298830895e+02 -5.7622042658e+01 3.0268929664e+02 4.2140000000e+00 0.0000e+00 1.0000e+00
<mgrwt>
<rscale>  0 0.14000007E+04</rscale>
<asrwt>0</asrwt>
<pdfrwt beam="1">  1       21 0.20107959E+00 0.14000007E+04</pdfrwt>
<pdfrwt beam="2">  1       21 0.57676884E-01 0.14000007E+04</pdfrwt>
<totfact> 0.25273382E+02</totfact>
</mgrwt>
<rwgt>
<wgt id='1001'> +2.8343000e+11 </wgt>
<wgt id='1002'> +2.9265157e+11 </wgt>
<wgt id='1003'> +2.9264944e+11 </wgt>
<wgt id='1004'> +3.3013915e+11 </wgt>
<wgt id='1005'> +2.8343000e+11 </wgt>
<wgt id='1006'> +2.8343000e+11 </wgt>
<wgt id='1007'> +2.9265157e+11 </wgt>
<wgt id='1008'> +2.9264944e+11 </wgt>
<wgt id='1009'> +3.3013915e+11 </wgt>
<wgt id='1010'> +2.8343000e+11 </wgt>
<wgt id='1011'> +2.8343000e+11 </wgt>
<wgt id='1012'> +2.9265157e+11 </wgt>
<wgt id='1013'> +2.9264944e+11 </wgt>
<wgt id='1014'> +3.3013915e+11 </wgt>
<wgt id='1015'> +2.8343000e+11 </wgt>
<wgt id='1016'> +2.5368334e+11 </wgt>
<wgt id='1017'> +2.6144171e+11 </wgt>
<wgt id='1018'> +2.6143992e+11 </wgt>
<wgt id='1019'> +2.9264944e+11 </wgt>
<wgt id='1020'> +2.5368334e+11 </wgt>
<wgt id='1021'> +2.5368334e+11 </wgt>
<wgt id='1022'> +2.6144171e+11 </wgt>
<wgt id='1023'> +2.6143992e+11 </wgt>
<wgt id='1024'> +2.9264944e+11 </wgt>
<wgt id='1025'> +2.5368334e+11 </wgt>
<wgt id='1026'> +2.5368334e+11 </wgt>
<wgt id='1027'> +2.6144171e+11 </wgt>
<wgt id='1028'> +2.6143992e+11 </wgt>
<wgt id='1029'> +2.9264944e+11 </wgt>
<wgt id='1030'> +2.5368334e+11 </wgt>
<wgt id='1031'> +3.1902334e+11 </wgt>
<wgt id='1032'> +3.3014172e+11 </wgt>
<wgt id='1033'> +3.3013915e+11 </wgt>
<wgt id='1034'> +3.7557992e+11 </wgt>
<wgt id='1035'> +3.1902334e+11 </wgt>
<wgt id='1036'> +3.1902334e+11 </wgt>
<wgt id='1037'> +3.3014172e+11 </wgt>
<wgt id='1038'> +3.3013915e+11 </wgt>
<wgt id='1039'> +3.7557992e+11 </wgt>
<wgt id='1040'> +3.1902334e+11 </wgt>
<wgt id='1041'> +3.1902334e+11 </wgt>
<wgt id='1042'> +3.3014172e+11 </wgt>
<wgt id='1043'> +3.3013915e+11 </wgt>
<wgt id='1044'> +3.7557992e+11 </wgt>
<wgt id='1045'> +3.1902334e+11 </wgt>
<wgt id='1046'> +2.8343000e+11 </wgt>
<wgt id='1047'> +2.8343000e+11 </wgt>
<wgt id='1048'> +2.8343000e+11 </wgt>
<wgt id='1049'> +2.8297219e+11 </wgt>
<wgt id='1050'> +2.8320381e+11 </wgt>
<wgt id='1051'> +2.8334215e+11 </wgt>
<wgt id='1052'> +2.8421833e+11 </wgt>
<wgt id='1053'> +2.8160051e+11 </wgt>
<wgt id='1054'> +2.8377534e+11 </wgt>
<wgt id='1055'> +2.8214171e+11 </wgt>
<wgt id='1056'> +2.8212594e+11 </wgt>
<wgt id='1057'> +2.8292928e+11 </wgt>
<wgt id='1058'> +2.8265139e+11 </wgt>
<wgt id='1059'> +2.8543899e+11 </wgt>
<wgt id='1060'> +2.8375769e+11 </wgt>
<wgt id='1061'> +2.8396860e+11 </wgt>
<wgt id='1062'> +2.8429752e+11 </wgt>
<wgt id='1063'> +2.8468064e+11 </wgt>
<wgt id='1064'> +2.8406288e+11 </wgt>
<wgt id='1065'> +2.8476483e+11 </wgt>
<wgt id='1066'> +2.8142356e+11 </wgt>
<wgt id='1067'> +2.8228034e+11 </wgt>
<wgt id='1068'> +2.8373300e+11 </wgt>
<wgt id='1069'> +2.8254955e+11 </wgt>
<wgt id='1070'> +2.8406886e+11 </wgt>
<wgt id='1071'> +2.8269081e+11 </wgt>
<wgt id='1072'> +2.8332751e+11 </wgt>
<wgt id='1073'> +2.8257438e+11 </wgt>
<wgt id='1074'> +2.8265744e+11 </wgt>
<wgt id='1075'> +2.8405275e+11 </wgt>
<wgt id='1076'> +2.8157842e+11 </wgt>
<wgt id='1077'> +2.8202317e+11 </wgt>
<wgt id='1078'> +2.8411862e+11 </wgt>
<wgt id='1079'> +2.8221919e+11 </wgt>
<wgt id='1080'> +2.8307985e+11 </wgt>
<wgt id='1081'> +2.8299788e+11 </wgt>
<wgt id='1082'> +2.8227225e+11 </wgt>
<wgt id='1083'> +2.8437835e+11 </wgt>
<wgt id='1084'> +2.8400219e+11 </wgt>
<wgt id='1085'> +2.8270215e+11 </wgt>
<wgt id='1086'> +2.8335701e+11 </wgt>
<wgt id='1087'> +2.8339925e+11 </wgt>
<wgt id='1088'> +2.8295458e+11 </wgt>
<wgt id='1089'> +2.8249776e+11 </wgt>
<wgt id='1090'> +2.8403119e+11 </wgt>
<wgt id='1091'> +2.8359357e+11 </wgt>
<wgt id='1092'> +2.8363642e+11 </wgt>
<wgt id='1093'> +2.8349638e+11 </wgt>
<wgt id='1094'> +2.8231966e+11 </wgt>
<wgt id='1095'> +2.8366055e+11 </wgt>
<wgt id='1096'> +2.8341411e+11 </wgt>
<wgt id='1097'> +2.8285388e+11 </wgt>
<wgt id='1098'> +2.8319321e+11 </wgt>
<wgt id='1099'> +2.8322998e+11 </wgt>
<wgt id='1100'> +2.8403937e+11 </wgt>
<wgt id='1101'> +2.8350139e+11 </wgt>
<wgt id='1102'> +2.8334178e+11 </wgt>
<wgt id='1103'> +2.8275025e+11 </wgt>
<wgt id='1104'> +2.8327241e+11 </wgt>
<wgt id='1105'> +2.8351196e+11 </wgt>
<wgt id='1106'> +2.8378037e+11 </wgt>
<wgt id='1107'> +2.8363715e+11 </wgt>
<wgt id='1108'> +2.8322073e+11 </wgt>
<wgt id='1109'> +2.8327916e+11 </wgt>
<wgt id='1110'> +2.8365384e+11 </wgt>
<wgt id='1111'> +2.8367796e+11 </wgt>
<wgt id='1112'> +2.8334360e+11 </wgt>
<wgt id='1113'> +2.8377286e+11 </wgt>
<wgt id='1114'> +2.8314098e+11 </wgt>
<wgt id='1115'> +2.8299977e+11 </wgt>
<wgt id='1116'> +2.8407675e+11 </wgt>
<wgt id='1117'> +2.8335840e+11 </wgt>
<wgt id='1118'> +2.8373303e+11 </wgt>
<wgt id='1119'> +2.8304714e+11 </wgt>
<wgt id='1120'> +2.8308515e+11 </wgt>
<wgt id='1121'> +2.8350366e+11 </wgt>
<wgt id='1122'> +2.8308449e+11 </wgt>
<wgt id='1123'> +2.8337575e+11 </wgt>
<wgt id='1124'> +2.8346861e+11 </wgt>
<wgt id='1125'> +2.8362992e+11 </wgt>
<wgt id='1126'> +2.8355495e+11 </wgt>
<wgt id='1127'> +2.8328287e+11 </wgt>
<wgt id='1128'> +2.8338242e+11 </wgt>
<wgt id='1129'> +2.8326919e+11 </wgt>
<wgt id='1130'> +2.8346029e+11 </wgt>
<wgt id='1131'> +2.8393848e+11 </wgt>
<wgt id='1132'> +2.8332405e+11 </wgt>
<wgt id='1133'> +2.8356790e+11 </wgt>
<wgt id='1134'> +2.8340857e+11 </wgt>
<wgt id='1135'> +2.8346261e+11 </wgt>
<wgt id='1136'> +2.8331993e+11 </wgt>
<wgt id='1137'> +2.8321339e+11 </wgt>
<wgt id='1138'> +2.8357830e+11 </wgt>
<wgt id='1139'> +2.8352748e+11 </wgt>
<wgt id='1140'> +2.8370044e+11 </wgt>
<wgt id='1141'> +2.8318416e+11 </wgt>
<wgt id='1142'> +2.8348426e+11 </wgt>
<wgt id='1143'> +2.8362487e+11 </wgt>
<wgt id='1144'> +2.8332691e+11 </wgt>
<wgt id='1145'> +2.8358844e+11 </wgt>
<wgt id='1146'> +2.8349530e+11 </wgt>
<wgt id='1147'> +2.8348929e+11 </wgt>
<wgt id='1148'> +2.8343000e+11 </wgt>
<wgt id='1149'> +2.8343000e+11 </wgt>
<wgt id='1150'> +2.9693894e+11 </wgt>
<wgt id='1151'> +2.7651699e+11 </wgt>
<wgt id='1152'> +2.7357932e+11 </wgt>
<wgt id='1153'> +2.8563653e+11 </wgt>
<wgt id='1154'> +2.8015355e+11 </wgt>
<wgt id='1155'> +2.9543264e+11 </wgt>
<wgt id='1156'> +2.7920010e+11 </wgt>
<wgt id='1157'> +2.7527481e+11 </wgt>
<wgt id='1158'> +2.7703012e+11 </wgt>
<wgt id='1159'> +2.9824709e+11 </wgt>
<wgt id='1160'> +2.8567417e+11 </wgt>
<wgt id='1161'> +2.9087941e+11 </wgt>
<wgt id='1162'> +2.8640656e+11 </wgt>
<wgt id='1163'> +2.8691547e+11 </wgt>
<wgt id='1164'> +2.7422266e+11 </wgt>
<wgt id='1165'> +2.7777352e+11 </wgt>
<wgt id='1166'> +2.8322496e+11 </wgt>
<wgt id='1167'> +2.7817393e+11 </wgt>
<wgt id='1168'> +2.7364581e+11 </wgt>
<wgt id='1169'> +2.7620975e+11 </wgt>
<wgt id='1170'> +2.8467327e+11 </wgt>
<wgt id='1171'> +2.7338074e+11 </wgt>
<wgt id='1172'> +2.7368823e+11 </wgt>
<wgt id='1173'> +2.8574800e+11 </wgt>
<wgt id='1174'> +2.7672085e+11 </wgt>
<wgt id='1175'> +2.7891524e+11 </wgt>
<wgt id='1176'> +2.8735469e+11 </wgt>
<wgt id='1177'> +2.7884772e+11 </wgt>
<wgt id='1178'> +2.8511371e+11 </wgt>
<wgt id='1179'> +2.8596130e+11 </wgt>
<wgt id='1180'> +2.8008300e+11 </wgt>
<wgt id='1181'> +2.9376873e+11 </wgt>
<wgt id='1182'> +2.8061631e+11 </wgt>
<wgt id='1183'> +2.8876628e+11 </wgt>
<wgt id='1184'> +2.7832834e+11 </wgt>
<wgt id='1185'> +2.8938666e+11 </wgt>
<wgt id='1186'> +2.7853324e+11 </wgt>
<wgt id='1187'> +2.8493375e+11 </wgt>
<wgt id='1188'> +2.9038303e+11 </wgt>
<wgt id='1189'> +2.8176115e+11 </wgt>
<wgt id='1190'> +2.8025318e+11 </wgt>
<wgt id='1191'> +2.9030174e+11 </wgt>
<wgt id='1192'> +2.8781425e+11 </wgt>
<wgt id='1193'> +2.8932850e+11 </wgt>
<wgt id='1194'> +2.7870913e+11 </wgt>
<wgt id='1195'> +2.8648087e+11 </wgt>
<wgt id='1196'> +2.9109700e+11 </wgt>
<wgt id='1197'> +2.9055460e+11 </wgt>
<wgt id='1198'> +2.8684663e+11 </wgt>
<wgt id='1199'> +2.8746763e+11 </wgt>
<wgt id='1200'> +2.9031345e+11 </wgt>
<wgt id='1201'> +2.8194332e+11 </wgt>
<wgt id='1202'> +2.8524933e+11 </wgt>
<wgt id='1203'> +2.8411207e+11 </wgt>
<wgt id='1204'> +2.8060320e+11 </wgt>
<wgt id='1205'> +2.8464486e+11 </wgt>
<wgt id='1206'> +2.8081828e+11 </wgt>
<wgt id='1207'> +2.9130869e+11 </wgt>
<wgt id='1208'> +2.7087986e+11 </wgt>
<wgt id='1209'> +2.8498498e+11 </wgt>
<wgt id='1210'> +2.8723518e+11 </wgt>
<wgt id='1211'> +2.8169335e+11 </wgt>
<wgt id='1212'> +2.8300070e+11 </wgt>
<wgt id='1213'> +2.8677647e+11 </wgt>
<wgt id='1214'> +2.7895831e+11 </wgt>
<wgt id='1215'> +2.8025926e+11 </wgt>
<wgt id='1216'> +2.7712017e+11 </wgt>
<wgt id='1217'> +2.8026306e+11 </wgt>
<wgt id='1218'> +2.8508449e+11 </wgt>
<wgt id='1219'> +2.9346588e+11 </wgt>
<wgt id='1220'> +2.8074417e+11 </wgt>
<wgt id='1221'> +2.7698320e+11 </wgt>
<wgt id='1222'> +2.7872857e+11 </wgt>
<wgt id='1223'> +2.7384690e+11 </wgt>
<wgt id='1224'> +2.8231051e+11 </wgt>
<wgt id='1225'> +2.8397939e+11 </wgt>
<wgt id='1226'> +2.8548263e+11 </wgt>
<wgt id='1227'> +2.8119047e+11 </wgt>
<wgt id='1228'> +2.8250578e+11 </wgt>
<wgt id='1229'> +2.9996777e+11 </wgt>
<wgt id='1230'> +2.8820372e+11 </wgt>
<wgt id='1231'> +2.7777352e+11 </wgt>
<wgt id='1232'> +2.8772458e+11 </wgt>
<wgt id='1233'> +2.7651567e+11 </wgt>
<wgt id='1234'> +2.7852557e+11 </wgt>
<wgt id='1235'> +3.0010395e+11 </wgt>
<wgt id='1236'> +2.7904063e+11 </wgt>
<wgt id='1237'> +2.9031596e+11 </wgt>
<wgt id='1238'> +2.7993153e+11 </wgt>
<wgt id='1239'> +2.8613091e+11 </wgt>
<wgt id='1240'> +2.7568053e+11 </wgt>
<wgt id='1241'> +2.8839683e+11 </wgt>
<wgt id='1242'> +2.8058325e+11 </wgt>
<wgt id='1243'> +2.8423329e+11 </wgt>
<wgt id='1244'> +2.9042092e+11 </wgt>
<wgt id='1245'> +2.7594049e+11 </wgt>
<wgt id='1246'> +3.0386723e+11 </wgt>
<wgt id='1247'> +2.8135813e+11 </wgt>
<wgt id='1248'> +2.7331768e+11 </wgt>
<wgt id='1249'> +2.7548701e+11 </wgt>
<wgt id='1250'> +2.9405175e+11 </wgt>
<wgt id='1251'> +3.0248001e+11 </wgt>
<wgt id='1252'> +2.8837111e+11 </wgt>
<wgt id='1253'> +2.9351492e+11 </wgt>
<wgt id='1254'> +2.8992976e+11 </wgt>
<wgt id='1255'> +3.0465220e+11 </wgt>
<wgt id='1256'> +3.0448305e+11 </wgt>
<wgt id='1257'> +3.0149187e+11 </wgt>
<wgt id='1258'> +2.9231749e+11 </wgt>
<wgt id='1259'> +3.0619913e+11 </wgt>
<wgt id='1260'> +3.2918968e+11 </wgt>
<wgt id='1261'> +3.1576523e+11 </wgt>
<wgt id='1262'> +2.9515184e+11 </wgt>
<wgt id='1263'> +3.0010074e+11 </wgt>
<wgt id='1264'> +3.0295590e+11 </wgt>
<wgt id='1265'> +2.9304572e+11 </wgt>
<wgt id='1266'> +3.0501721e+11 </wgt>
<wgt id='1267'> +3.5021677e+11 </wgt>
<wgt id='1268'> +2.8870463e+11 </wgt>
<wgt id='1269'> +2.8666731e+11 </wgt>
<wgt id='1270'> +3.0645453e+11 </wgt>
<wgt id='1271'> +2.6590024e+11 </wgt>
<wgt id='1272'> +2.9383667e+11 </wgt>
<wgt id='1273'> +2.9093099e+11 </wgt>
<wgt id='1274'> +2.8708263e+11 </wgt>
<wgt id='1275'> +2.9336115e+11 </wgt>
<wgt id='1276'> +3.0449903e+11 </wgt>
<wgt id='1277'> +2.9974704e+11 </wgt>
<wgt id='1278'> +3.0013448e+11 </wgt>
<wgt id='1279'> +2.7928639e+11 </wgt>
<wgt id='1280'> +2.8586231e+11 </wgt>
<wgt id='1281'> +2.8525997e+11 </wgt>
<wgt id='1282'> +2.9491615e+11 </wgt>
<wgt id='1283'> +3.1233507e+11 </wgt>
<wgt id='1284'> +3.0765253e+11 </wgt>
<wgt id='1285'> +3.0809392e+11 </wgt>
<wgt id='1286'> +3.3157982e+11 </wgt>
<wgt id='1287'> +3.1230446e+11 </wgt>
<wgt id='1288'> +3.3779914e+11 </wgt>
<wgt id='1289'> +3.1599508e+11 </wgt>
<wgt id='1290'> +3.1317321e+11 </wgt>
<wgt id='1291'> +2.7886000e+11 </wgt>
<wgt id='1292'> +3.0413599e+11 </wgt>
<wgt id='1293'> +3.0373270e+11 </wgt>
<wgt id='1294'> +3.2619823e+11 </wgt>
<wgt id='1295'> +3.1105403e+11 </wgt>
<wgt id='1296'> +3.3216384e+11 </wgt>
<wgt id='1297'> +2.8991074e+11 </wgt>
<wgt id='1298'> +2.8954441e+11 </wgt>
<wgt id='1299'> +3.0499339e+11 </wgt>
<wgt id='1300'> +2.8134720e+11 </wgt>
<wgt id='1301'> +2.7978130e+11 </wgt>
<wgt id='1302'> +2.8210613e+11 </wgt>
<wgt id='1303'> +3.0470070e+11 </wgt>
<wgt id='1304'> +3.2884549e+11 </wgt>
<wgt id='1305'> +2.9833274e+11 </wgt>
<wgt id='1306'> +3.0636982e+11 </wgt>
<wgt id='1307'> +2.8637456e+11 </wgt>
<wgt id='1308'> +3.3198744e+11 </wgt>
<wgt id='1309'> +3.0186465e+11 </wgt>
<wgt id='1310'> +3.0404351e+11 </wgt>
<wgt id='1311'> +2.9743877e+11 </wgt>
<wgt id='1312'> +3.1677372e+11 </wgt>
<wgt id='1313'> +3.0522676e+11 </wgt>
<wgt id='1314'> +2.9277389e+11 </wgt>
<wgt id='1315'> +2.8802968e+11 </wgt>
<wgt id='1316'> +3.0005767e+11 </wgt>
<wgt id='1317'> +3.1448020e+11 </wgt>
<wgt id='1318'> +2.9173266e+11 </wgt>
<wgt id='1319'> +2.9695338e+11 </wgt>
<wgt id='1320'> +3.1867642e+11 </wgt>
<wgt id='1321'> +3.0379577e+11 </wgt>
<wgt id='1322'> +3.1357578e+11 </wgt>
<wgt id='1323'> +2.8781896e+11 </wgt>
<wgt id='1324'> +3.0994369e+11 </wgt>
<wgt id='1325'> +3.1344403e+11 </wgt>
<wgt id='1326'> +3.1014789e+11 </wgt>
<wgt id='1327'> +3.1518941e+11 </wgt>
<wgt id='1328'> +2.9860757e+11 </wgt>
<wgt id='1329'> +2.9786706e+11 </wgt>
<wgt id='1330'> +2.8445667e+11 </wgt>
<wgt id='1331'> +3.2399025e+11 </wgt>
<wgt id='1332'> +2.9932028e+11 </wgt>
<wgt id='1333'> +3.0244566e+11 </wgt>
<wgt id='1334'> +3.1942772e+11 </wgt>
<wgt id='1335'> +2.9198202e+11 </wgt>
<wgt id='1336'> +3.1852417e+11 </wgt>
<wgt id='1337'> +3.0967129e+11 </wgt>
<wgt id='1338'> +2.8692688e+11 </wgt>
<wgt id='1339'> +3.1385767e+11 </wgt>
<wgt id='1340'> +3.1134949e+11 </wgt>
<wgt id='1341'> +3.2743922e+11 </wgt>
<wgt id='1342'> +3.0125587e+11 </wgt>
<wgt id='1343'> +3.0912729e+11 </wgt>
<wgt id='1344'> +3.1873238e+11 </wgt>
<wgt id='1345'> +2.6122552e+11 </wgt>
<wgt id='1346'> +3.0521306e+11 </wgt>
<wgt id='1347'> +2.9412911e+11 </wgt>
<wgt id='1348'> +2.9103348e+11 </wgt>
<wgt id='1349'> +2.8827007e+11 </wgt>
<wgt id='1350'> +3.1159426e+11 </wgt>
<wgt id='1351'> +2.9078446e+11 </wgt>
<wgt id='1352'> +3.0466923e+11 </wgt>
<wgt id='1353'> +3.0192399e+11 </wgt>
<wgt id='1354'> +3.1094295e+11 </wgt>
<wgt id='1355'> +2.7931162e+11 </wgt>
<wgt id='1356'> +2.8188241e+11 </wgt>
<wgt id='1357'> +2.7987980e+11 </wgt>
<wgt id='1358'> +2.7783418e+11 </wgt>
<wgt id='1359'> +2.7829821e+11 </wgt>
<wgt id='1360'> +2.7462055e+11 </wgt>
<wgt id='1361'> +2.7790924e+11 </wgt>
<wgt id='1362'> +2.8719526e+11 </wgt>
<wgt id='1363'> +2.7778864e+11 </wgt>
<wgt id='1364'> +2.8478377e+11 </wgt>
<wgt id='1365'> +2.7722345e+11 </wgt>
<wgt id='1366'> +2.7553468e+11 </wgt>
<wgt id='1367'> +2.7865750e+11 </wgt>
<wgt id='1368'> +2.8005110e+11 </wgt>
<wgt id='1369'> +2.8262159e+11 </wgt>
<wgt id='1370'> +2.7567210e+11 </wgt>
<wgt id='1371'> +2.7955894e+11 </wgt>
<wgt id='1372'> +2.8000574e+11 </wgt>
<wgt id='1373'> +2.8268361e+11 </wgt>
<wgt id='1374'> +2.7275540e+11 </wgt>
<wgt id='1375'> +2.8074446e+11 </wgt>
<wgt id='1376'> +2.7836753e+11 </wgt>
<wgt id='1377'> +2.7972555e+11 </wgt>
<wgt id='1378'> +2.7990195e+11 </wgt>
<wgt id='1379'> +2.7770628e+11 </wgt>
<wgt id='1380'> +2.7675218e+11 </wgt>
<wgt id='1381'> +2.8363099e+11 </wgt>
<wgt id='1382'> +2.7789417e+11 </wgt>
<wgt id='1383'> +2.7650833e+11 </wgt>
<wgt id='1384'> +2.7479895e+11 </wgt>
<wgt id='1385'> +2.7430541e+11 </wgt>
<wgt id='1386'> +2.7705982e+11 </wgt>
<wgt id='1387'> +2.7745959e+11 </wgt>
<wgt id='1388'> +2.7468128e+11 </wgt>
<wgt id='1389'> +2.7790129e+11 </wgt>
<wgt id='1390'> +2.8189065e+11 </wgt>
<wgt id='1391'> +2.7844444e+11 </wgt>
<wgt id='1392'> +2.7531746e+11 </wgt>
<wgt id='1393'> +2.8063249e+11 </wgt>
<wgt id='1394'> +2.7851091e+11 </wgt>
<wgt id='1395'> +2.7417329e+11 </wgt>
<wgt id='1396'> +2.7964965e+11 </wgt>
<wgt id='1397'> +2.7988357e+11 </wgt>
<wgt id='1398'> +2.8302002e+11 </wgt>
<wgt id='1399'> +2.7734726e+11 </wgt>
<wgt id='1400'> +2.7408057e+11 </wgt>
<wgt id='1401'> +2.8016851e+11 </wgt>
<wgt id='1402'> +2.8173182e+11 </wgt>
<wgt id='1403'> +2.8797887e+11 </wgt>
<wgt id='1404'> +2.8266125e+11 </wgt>
<wgt id='1405'> +2.8655046e+11 </wgt>
<wgt id='1406'> +2.8249931e+11 </wgt>
<wgt id='1407'> +2.8005217e+11 </wgt>
<wgt id='1408'> +2.8631339e+11 </wgt>
<wgt id='1409'> +2.7440694e+11 </wgt>
<wgt id='1410'> +2.7167899e+11 </wgt>
<wgt id='1411'> +2.7904006e+11 </wgt>
<wgt id='1412'> +2.7826030e+11 </wgt>
<wgt id='1413'> +2.8129876e+11 </wgt>
<wgt id='1414'> +2.8185226e+11 </wgt>
<wgt id='1415'> +2.7943747e+11 </wgt>
<wgt id='1416'> +2.8061435e+11 </wgt>
<wgt id='1417'> +2.7685178e+11 </wgt>
<wgt id='1418'> +2.7843135e+11 </wgt>
<wgt id='1419'> +2.8276697e+11 </wgt>
<wgt id='1420'> +2.7485436e+11 </wgt>
<wgt id='1421'> +2.8594738e+11 </wgt>
<wgt id='1422'> +2.7229347e+11 </wgt>
<wgt id='1423'> +2.8336524e+11 </wgt>
<wgt id='1424'> +2.7986668e+11 </wgt>
<wgt id='1425'> +2.7976004e+11 </wgt>
<wgt id='1426'> +2.8150224e+11 </wgt>
<wgt id='1427'> +2.7796332e+11 </wgt>
<wgt id='1428'> +2.7776726e+11 </wgt>
<wgt id='1429'> +2.7999864e+11 </wgt>
<wgt id='1430'> +2.7586320e+11 </wgt>
<wgt id='1431'> +2.7535395e+11 </wgt>
<wgt id='1432'> +2.7633745e+11 </wgt>
<wgt id='1433'> +2.7515918e+11 </wgt>
<wgt id='1434'> +2.8648054e+11 </wgt>
<wgt id='1435'> +2.7851289e+11 </wgt>
<wgt id='1436'> +2.8321656e+11 </wgt>
<wgt id='1437'> +2.7815209e+11 </wgt>
<wgt id='1438'> +2.7899080e+11 </wgt>
<wgt id='1439'> +2.8535736e+11 </wgt>
<wgt id='1440'> +2.8048314e+11 </wgt>
<wgt id='1441'> +2.7559575e+11 </wgt>
<wgt id='1442'> +2.8248205e+11 </wgt>
<wgt id='1443'> +2.7595097e+11 </wgt>
<wgt id='1444'> +2.8436868e+11 </wgt>
<wgt id='1445'> +2.7889396e+11 </wgt>
<wgt id='1446'> +2.8698340e+11 </wgt>
<wgt id='1447'> +2.7846409e+11 </wgt>
<wgt id='1448'> +2.8189936e+11 </wgt>
<wgt id='1449'> +2.8240554e+11 </wgt>
<wgt id='1450'> +2.7869211e+11 </wgt>
<wgt id='1451'> +2.7985878e+11 </wgt>
<wgt id='1452'> +2.8140902e+11 </wgt>
<wgt id='1453'> +2.8055408e+11 </wgt>
<wgt id='1454'> +2.7071834e+11 </wgt>
<wgt id='1455'> +2.7781039e+11 </wgt>
<wgt id='1456'> +2.7788782e+11 </wgt>
<wgt id='1457'> +2.7879846e+11 </wgt>
<wgt id='1458'> +2.8530603e+11 </wgt>
<wgt id='1459'> +3.1179566e+11 </wgt>
<wgt id='1460'> +3.0664495e+11 </wgt>
<wgt id='1461'> +3.6511997e+11 </wgt>
<wgt id='1462'> +3.0072973e+11 </wgt>
<wgt id='1463'> +3.0095272e+11 </wgt>
<wgt id='1464'> +3.0044371e+11 </wgt>
<wgt id='1465'> +3.0079665e+11 </wgt>
<wgt id='1466'> +3.0066859e+11 </wgt>
<wgt id='1467'> +3.0084793e+11 </wgt>
<wgt id='1468'> +3.0053574e+11 </wgt>
<wgt id='1469'> +3.0029708e+11 </wgt>
<wgt id='1470'> +3.0108109e+11 </wgt>
<wgt id='1471'> +3.0118029e+11 </wgt>
<wgt id='1472'> +3.0026561e+11 </wgt>
<wgt id='1473'> +3.0192273e+11 </wgt>
<wgt id='1474'> +2.9958382e+11 </wgt>
<wgt id='1475'> +3.0186031e+11 </wgt>
<wgt id='1476'> +2.9992828e+11 </wgt>
<wgt id='1477'> +3.0018138e+11 </wgt>
<wgt id='1478'> +3.0201083e+11 </wgt>
<wgt id='1479'> +3.0037750e+11 </wgt>
<wgt id='1480'> +3.0097994e+11 </wgt>
<wgt id='1481'> +3.0019212e+11 </wgt>
<wgt id='1482'> +3.0145676e+11 </wgt>
<wgt id='1483'> +3.0079412e+11 </wgt>
<wgt id='1484'> +3.0064141e+11 </wgt>
<wgt id='1485'> +3.0094006e+11 </wgt>
<wgt id='1486'> +3.0022311e+11 </wgt>
<wgt id='1487'> +3.0101251e+11 </wgt>
<wgt id='1488'> +3.0037670e+11 </wgt>
<wgt id='1489'> +3.0035698e+11 </wgt>
<wgt id='1490'> +3.0174058e+11 </wgt>
<wgt id='1491'> +3.0574458e+11 </wgt>
<wgt id='1492'> +2.9793533e+11 </wgt>
<wgt id='1493'> +2.9708091e+11 </wgt>
<wgt id='1494'> +3.1217409e+11 </wgt>
<wgt id='1495'> +2.9992624e+11 </wgt>
<wgt id='1496'> +3.0159251e+11 </wgt>
<wgt id='1497'> +3.0093679e+11 </wgt>
<wgt id='1498'> +3.0044692e+11 </wgt>
<wgt id='1499'> +3.0278834e+11 </wgt>
<wgt id='1500'> +2.9960547e+11 </wgt>
<wgt id='1501'> +3.0109852e+11 </wgt>
<wgt id='1502'> +2.9975765e+11 </wgt>
<wgt id='1503'> +2.9667897e+11 </wgt>
<wgt id='1504'> +3.0522336e+11 </wgt>
<wgt id='1505'> +3.0146888e+11 </wgt>
<wgt id='1506'> +3.0000248e+11 </wgt>
<wgt id='1507'> +3.0369570e+11 </wgt>
<wgt id='1508'> +2.9627380e+11 </wgt>
<wgt id='1509'> +3.0147866e+11 </wgt>
<wgt id='1510'> +2.9750276e+11 </wgt>
<wgt id='1511'> +3.0194871e+11 </wgt>
<wgt id='1512'> +3.0036008e+11 </wgt>
<wgt id='1513'> +3.0057760e+11 </wgt>
<wgt id='1514'> +3.0090987e+11 </wgt>
<wgt id='1515'> +3.0423486e+11 </wgt>
<wgt id='1516'> +3.0047005e+11 </wgt>
<wgt id='1517'> +3.0023194e+11 </wgt>
<wgt id='1518'> +3.0137064e+11 </wgt>
<wgt id='1519'> +2.9879858e+11 </wgt>
<wgt id='1520'> +3.0209854e+11 </wgt>
<wgt id='1521'> +2.9957936e+11 </wgt>
<wgt id='1522'> +3.0138327e+11 </wgt>
<wgt id='1523'> +3.0193086e+11 </wgt>
<wgt id='1524'> +3.0234988e+11 </wgt>
<wgt id='1525'> +3.0153782e+11 </wgt>
<wgt id='1526'> +3.0209210e+11 </wgt>
<wgt id='1527'> +3.0072973e+11 </wgt>
<wgt id='1528'> +2.9978655e+11 </wgt>
<wgt id='1529'> +3.0134317e+11 </wgt>
<wgt id='1530'> +2.9675266e+11 </wgt>
<wgt id='1531'> +3.0276907e+11 </wgt>
<wgt id='1532'> +3.0183462e+11 </wgt>
<wgt id='1533'> +2.9740959e+11 </wgt>
<wgt id='1534'> +3.0117229e+11 </wgt>
<wgt id='1535'> +3.0588288e+11 </wgt>
<wgt id='1536'> +2.9962708e+11 </wgt>
<wgt id='1537'> +3.0406426e+11 </wgt>
<wgt id='1538'> +2.9895202e+11 </wgt>
<wgt id='1539'> +3.0800744e+11 </wgt>
<wgt id='1540'> +3.0359258e+11 </wgt>
<wgt id='1541'> +3.0422828e+11 </wgt>
<wgt id='1542'> +3.0287056e+11 </wgt>
<wgt id='1543'> +3.0445348e+11 </wgt>
<wgt id='1544'> +3.0107849e+11 </wgt>
<wgt id='1545'> +3.0074105e+11 </wgt>
<wgt id='1546'> +2.9894585e+11 </wgt>
<wgt id='1547'> +3.0507197e+11 </wgt>
<wgt id='1548'> +3.0143047e+11 </wgt>
<wgt id='1549'> +2.9925524e+11 </wgt>
<wgt id='1550'> +3.0465727e+11 </wgt>
<wgt id='1551'> +3.0338221e+11 </wgt>
<wgt id='1552'> +3.0276544e+11 </wgt>
<wgt id='1553'> +3.0694865e+11 </wgt>
<wgt id='1554'> +3.0291929e+11 </wgt>
<wgt id='1555'> +3.0370513e+11 </wgt>
<wgt id='1556'> +3.0486804e+11 </wgt>
<wgt id='1557'> +3.0233880e+11 </wgt>
<wgt id='1558'> +3.0310223e+11 </wgt>
<wgt id='1559'> +3.0018111e+11 </wgt>
<wgt id='1560'> +3.0160163e+11 </wgt>
<wgt id='1561'> +3.0048165e+11 </wgt>
<wgt id='1562'> +3.0110383e+11 </wgt>
<wgt id='1563'> +3.0300626e+11 </wgt>
<wgt id='1564'> +3.0245849e+11 </wgt>
<wgt id='1565'> +3.0549773e+11 </wgt>
<wgt id='1566'> +3.0278846e+11 </wgt>
<wgt id='1567'> +3.0456984e+11 </wgt>
<wgt id='1568'> +3.0263217e+11 </wgt>
<wgt id='1569'> +3.0219370e+11 </wgt>
<wgt id='1570'> +3.0904775e+11 </wgt>
<wgt id='1571'> +3.0281901e+11 </wgt>
<wgt id='1572'> +3.0462125e+11 </wgt>
<wgt id='1573'> +3.0679167e+11 </wgt>
<wgt id='1574'> +2.5673717e+11 </wgt>
<wgt id='1575'> +2.5680489e+11 </wgt>
<wgt id='1576'> +2.5666868e+11 </wgt>
<wgt id='1577'> +2.5675520e+11 </wgt>
<wgt id='1578'> +2.5732881e+11 </wgt>
<wgt id='1579'> +2.5754271e+11 </wgt>
<wgt id='1580'> +2.5730946e+11 </wgt>
<wgt id='1581'> +2.5623968e+11 </wgt>
<wgt id='1582'> +2.5596625e+11 </wgt>
<wgt id='1583'> +2.5627598e+11 </wgt>
<wgt id='1584'> +2.5730492e+11 </wgt>
<wgt id='1585'> +2.5697805e+11 </wgt>
<wgt id='1586'> +2.5590400e+11 </wgt>
<wgt id='1587'> +2.5606842e+11 </wgt>
<wgt id='1588'> +2.5561764e+11 </wgt>
<wgt id='1589'> +2.5642449e+11 </wgt>
<wgt id='1590'> +2.5658231e+11 </wgt>
<wgt id='1591'> +2.5681629e+11 </wgt>
<wgt id='1592'> +2.5575069e+11 </wgt>
<wgt id='1593'> +2.5567394e+11 </wgt>
<wgt id='1594'> +2.5776559e+11 </wgt>
<wgt id='1595'> +2.5423787e+11 </wgt>
<wgt id='1596'> +2.6090727e+11 </wgt>
<wgt id='1597'> +2.5854847e+11 </wgt>
<wgt id='1598'> +2.5868509e+11 </wgt>
<wgt id='1599'> +2.5375086e+11 </wgt>
<wgt id='1600'> +2.6159424e+11 </wgt>
<wgt id='1601'> +2.5889553e+11 </wgt>
<wgt id='1602'> +2.5678922e+11 </wgt>
<wgt id='1603'> +2.7027866e+11 </wgt>
<wgt id='1604'> +2.5687707e+11 </wgt>
</rwgt>
</event>
<event>
 9      1 +2.8343000e+11 1.40000100e+03 7.81738600e-03 7.88881100e-02
       21 -1    0    0  504  503 +0.0000000000e+00 +0.0000000000e+00 +1.8255063021e+03 1.8255063021e+03 0.0000000000e+00 0.0000e+00 -1.0000e+00
       21 -1    0    0  503  504 -0.0000000000e+00 -0.0000000000e+00 -2.6841923346e+02 2.6841923346e+02 0.0000000000e+00 0.0000e+00 -1.0000e+00
       45  2    1    2    0    0 +0.0000000000e+00 -2.8421709430e-14 +1.5570870686e+03 2.0939255356e+03 1.4000014318e+03 0.0000e+00 0.0000e+00
       25  2    3    3    0    0 +6.4711081535e+02 -2.1280307349e+02 +6.0388352882e+02 9.1887892209e+02 1.2500240656e+02 0.0000e+00 0.0000e+00
       35  2    3    3    0    0 -6.4711081535e+02 +2.1280307349e+02 +9.5320353981e+02 1.1750466135e+03 9.0000000464e+01 0.0000e+00 0.0000e+00
        5  1    5    5  501    0 -4.8078726022e+02 +1.9804835811e+02 +7.1299473340e+02 8.8247310972e+02 4.2140000000e+00 0.0000e+00 1.0000e+00
       -5  1    5    5    0  501 -1.6632355514e+02 +1.4754715378e+01 +2.4020880641e+02 2.9257350374e+02 4.2140000000e+00 0.0000e+00 1.0000e+00
        5  1    4    4  502    0 +2.1290916517e+02 -1.2894614323e+02 +2.4571442372e+02 3.4978672972e+02 4.2140000000e+00 0.0000e+00 -1.0000e+00
       -5  1    4    4    0  502 +4.3420165018e+02 -8.3856930265e+01 +3.5816910510e+02 5.6909219237e+02 4.2140000000e+00 0.0000e+00 -1.0000e+00
<mgrwt>
<rscale>  0 0.14000014E+04</rscale>
<asrwt>0</asrwt>
<pdfrwt beam="1">  1       21 0.28084712E+00 0.14000014E+04</pdfrwt>
<pdfrwt beam="2">  1       21 0.41295268E-01 0.14000014E+04</pdfrwt>
<totfact> 0.14703049E+02</totfact>
</mgrwt>
<rwgt>
<wgt id='1001'> +2.8343000e+11 </wgt>
<wgt id='1002'> +2.8420121e+11 </wgt>
<wgt id='1003'> +2.8419863e+11 </wgt>
<wgt id='1004'> +3.2175740e+11 </wgt>
<wgt id='1005'> +2.8343000e+11 </wgt>
<wgt id='1006'> +2.8343000e+11 </wgt>
<wgt id='1007'> +2.8420121e+11 </wgt>
<wgt id='1008'> +2.8419863e+11 </wgt>
<wgt id='1009'> +3.2175740e+11 </wgt>
<wgt id='1010'> +2.8343000e+11 </wgt>
<wgt id='1011'> +2.8343000e+11 </wgt>
<wgt id='1012'> +2.8420121e+11 </wgt>
<wgt id='1013'> +2.8419863e+11 </wgt>
<wgt id='1014'> +3.2175740e+11 </wgt>
<wgt id='1015'> +2.8343000e+11 </wgt>
<wgt id='1016'> +2.5230447e+11 </wgt>
<wgt id='1017'> +2.5295186e+11 </wgt>
<wgt id='1018'> +2.5294969e+11 </wgt>
<wgt id='1019'> +2.8419863e+11 </wgt>
<wgt id='1020'> +2.5230447e+11 </wgt>
<wgt id='1021'> +2.5230447e+11 </wgt>
<wgt id='1022'> +2.5295186e+11 </wgt>
<wgt id='1023'> +2.5294969e+11 </wgt>
<wgt id='1024'> +2.8419863e+11 </wgt>
<wgt id='1025'> +2.5230447e+11 </wgt>
<wgt id='1026'> +2.5230447e+11 </wgt>
<wgt id='1027'> +2.5295186e+11 </wgt>
<wgt id='1028'> +2.5294969e+11 </wgt>
<wgt id='1029'> +2.8419863e+11 </wgt>
<wgt id='1030'> +2.5230447e+11 </wgt>
<wgt id='1031'> +3.2082803e+11 </wgt>
<wgt id='1032'> +3.2176053e+11 </wgt>
<wgt id='1033'> +3.2175740e+11 </wgt>
<wgt id='1034'> +3.6730883e+11 </wgt>
<wgt id='1035'> +3.2082803e+11 </wgt>
<wgt id='1036'> +3.2082803e+11 </wgt>
<wgt id='1037'> +3.2176053e+11 </wgt>
<wgt id='1038'> +3.2175740e+11 </wgt>
<wgt id='1039'> +3.6730883e+11 </wgt>
<wgt id='1040'> +3.2082803e+11 </wgt>
<wgt id='1041'> +3.2082803e+11 </wgt>
<wgt id='1042'> +3.2176053e+11 </wgt>
<wgt id='1043'> +3.2175740e+11 </wgt>
<wgt id='1044'> +3.6730883e+11 </wgt>
<wgt id='1045'> +3.2082803e+11 </wgt>
<wgt id='1046'> +2.8343000e+11 </wgt>
<wgt id='1047'> +2.8343000e+11 </wgt>
<wgt id='1048'> +2.8343000e+11 </wgt>
<wgt id='1049'> +2.8328348e+11 </wgt>
<wgt id='1050'> +2.8274871e+11 </wgt>
<wgt id='1051'> +2.8352089e+11 </wgt>
<wgt id='1052'> +2.8363562e+11 </wgt>
<wgt id='1053'> +2.8163988e+11 </wgt>
<wgt id='1054'> +2.8490733e+11 </wgt>
<wgt id='1055'> +2.8198781e+11 </wgt>
<wgt id='1056'> +2.8161441e+11 </wgt>
<wgt id='1057'> +2.8227107e+11 </wgt>
<wgt id='1058'> +2.8295653e+11 </wgt>
<wgt id='1059'> +2.8574416e+11 </wgt>
<wgt id='1060'> +2.8314865e+11 </wgt>
<wgt id='1061'> +2.8452597e+11 </wgt>
<wgt id='1062'> +2.8470826e+11 </wgt>
<wgt id='1063'> +2.8470006e+11 </wgt>
<wgt id='1064'> +2.8468572e+11 </wgt>
<wgt id='1065'> +2.8536396e+11 </wgt>
<wgt id='1066'> +2.8220003e+11 </wgt>
<wgt id='1067'> +2.8198267e+11 </wgt>
<wgt id='1068'> +2.8411208e+11 </wgt>
<wgt id='1069'> +2.8245601e+11 </wgt>
<wgt id='1070'> +2.8334981e+11 </wgt>
<wgt id='1071'> +2.8423148e+11 </wgt>
<wgt id='1072'> +2.8285222e+11 </wgt>
<wgt id='1073'> +2.8268362e+11 </wgt>
<wgt id='1074'> +2.8275373e+11 </wgt>
<wgt id='1075'> +2.8183628e+11 </wgt>
<wgt id='1076'> +2.8338982e+11 </wgt>
<wgt id='1077'> +2.8090437e+11 </wgt>
<wgt id='1078'> +2.8261466e+11 </wgt>
<wgt id='1079'> +2.8264858e+11 </wgt>
<wgt id='1080'> +2.8268991e+11 </wgt>
<wgt id='1081'> +2.8304505e+11 </wgt>
<wgt id='1082'> +2.8350826e+11 </wgt>
<wgt id='1083'> +2.8420910e+11 </wgt>
<wgt id='1084'> +2.8385990e+11 </wgt>
<wgt id='1085'> +2.8198037e+11 </wgt>
<wgt id='1086'> +2.8518459e+11 </wgt>
<wgt id='1087'> +2.8394665e+11 </wgt>
<wgt id='1088'> +2.8270468e+11 </wgt>
<wgt id='1089'> +2.8266143e+11 </wgt>
<wgt id='1090'> +2.8426241e+11 </wgt>
<wgt id='1091'> +2.8384183e+11 </wgt>
<wgt id='1092'> +2.8343501e+11 </wgt>
<wgt id='1093'> +2.8327651e+11 </wgt>
<wgt id='1094'> +2.8172967e+11 </wgt>
<wgt id='1095'> +2.8405953e+11 </wgt>
<wgt id='1096'> +2.8351122e+11 </wgt>
<wgt id='1097'> +2.8248867e+11 </wgt>
<wgt id='1098'> +2.8307198e+11 </wgt>
<wgt id='1099'> +2.8339227e+11 </wgt>
<wgt id='1100'> +2.8380962e+11 </wgt>
<wgt id='1101'> +2.8339575e+11 </wgt>
<wgt id='1102'> +2.8330509e+11 </wgt>
<wgt id='1103'> +2.8197426e+11 </wgt>
<wgt id='1104'> +2.8371032e+11 </wgt>
<wgt id='1105'> +2.8354171e+11 </wgt>
<wgt id='1106'> +2.8396975e+11 </wgt>
<wgt id='1107'> +2.8394580e+11 </wgt>
<wgt id='1108'> +2.8311327e+11 </wgt>
<wgt id='1109'> +2.8356453e+11 </wgt>
<wgt id='1110'> +2.8345281e+11 </wgt>
<wgt id='1111'> +2.8425736e+11 </wgt>
<wgt id='1112'> +2.8307718e+11 </wgt>
<wgt id='1113'> +2.8377125e+11 </wgt>
<wgt id='1114'> +2.8309085e+11 </wgt>
<wgt id='1115'> +2.8245313e+11 </wgt>
<wgt id='1116'> +2.8458640e+11 </wgt>
<wgt id='1117'> +2.8325328e+11 </wgt>
<wgt id='1118'> +2.8412341e+11 </wgt>
<wgt id='1119'> +2.8264321e+11 </wgt>
<wgt id='1120'> +2.8256834e+11 </wgt>
<wgt id='1121'> +2.8339921e+11 </wgt>
<wgt id='1122'> +2.8271031e+11 </wgt>
<wgt id='1123'> +2.8334826e+11 </wgt>
<wgt id='1124'> +2.8368983e+11 </wgt>
<wgt id='1125'> +2.8364410e+11 </wgt>
<wgt id='1126'> +2.8358952e+11 </wgt>
<wgt id='1127'> +2.8337138e+11 </wgt>
<wgt id='1128'> +2.8328636e+11 </wgt>
<wgt id='1129'> +2.8306284e+11 </wgt>
<wgt id='1130'> +2.8346263e+11 </wgt>
<wgt id='1131'> +2.8436059e+11 </wgt>
<wgt id='1132'> +2.8320677e+11 </wgt>
<wgt id='1133'> +2.8369816e+11 </wgt>
<wgt id='1134'> +2.8330537e+11 </wgt>
<wgt id='1135'> +2.8350132e+11 </wgt>
<wgt id='1136'> +2.8316668e+11 </wgt>
<wgt id='1137'> +2.8304415e+11 </wgt>
<wgt id='1138'> +2.8362263e+11 </wgt>
<wgt id='1139'> +2.8372507e+11 </wgt>
<wgt id='1140'> +2.8381706e+11 </wgt>
<wgt id='1141'> +2.8299927e+11 </wgt>
<wgt id='1142'> +2.8346263e+11 </wgt>
<wgt id='1143'> +2.8374822e+11 </wgt>
<wgt id='1144'> +2.8333095e+11 </wgt>
<wgt id='1145'> +2.8367103e+11 </wgt>
<wgt id='1146'> +2.8362416e+11 </wgt>
<wgt id='1147'> +2.8352914e+11 </wgt>
<wgt id='1148'> +2.8343000e+11 </wgt>
<wgt id='1149'> +2.8343000e+11 </wgt>
<wgt id='1150'> +2.8495466e+11 </wgt>
<wgt id='1151'> +2.7802410e+11 </wgt>
<wgt id='1152'> +2.7824153e+11 </wgt>
<wgt id='1153'> +2.8532429e+11 </wgt>
<wgt id='1154'> +2.7264241e+11 </wgt>
<wgt id='1155'> +3.0065877e+11 </wgt>
<wgt id='1156'> +2.8611787e+11 </wgt>
<wgt id='1157'> +2.8101958e+11 </wgt>
<wgt id='1158'> +2.7903677e+11 </wgt>
<wgt id='1159'> +2.9042991e+11 </wgt>
<wgt id='1160'> +2.7463012e+11 </wgt>
<wgt id='1161'> +2.9951849e+11 </wgt>
<wgt id='1162'> +2.8411247e+11 </wgt>
<wgt id='1163'> +2.8794091e+11 </wgt>
<wgt id='1164'> +2.7004941e+11 </wgt>
<wgt id='1165'> +2.7335646e+11 </wgt>
<wgt id='1166'> +2.8305502e+11 </wgt>
<wgt id='1167'> +2.8000777e+11 </wgt>
<wgt id='1168'> +2.6841504e+11 </wgt>
<wgt id='1169'> +2.7331280e+11 </wgt>
<wgt id='1170'> +2.8329061e+11 </wgt>
<wgt id='1171'> +2.7371596e+11 </wgt>
<wgt id='1172'> +2.6799639e+11 </wgt>
<wgt id='1173'> +2.8895846e+11 </wgt>
<wgt id='1174'> +2.8018212e+11 </wgt>
<wgt id='1175'> +2.7741362e+11 </wgt>
<wgt id='1176'> +2.8934381e+11 </wgt>
<wgt id='1177'> +2.8727424e+11 </wgt>
<wgt id='1178'> +2.8514557e+11 </wgt>
<wgt id='1179'> +2.9552549e+11 </wgt>
<wgt id='1180'> +2.8422097e+11 </wgt>
<wgt id='1181'> +2.8431760e+11 </wgt>
<wgt id='1182'> +2.8393137e+11 </wgt>
<wgt id='1183'> +2.9181361e+11 </wgt>
<wgt id='1184'> +2.6551001e+11 </wgt>
<wgt id='1185'> +2.9153380e+11 </wgt>
<wgt id='1186'> +2.7664173e+11 </wgt>
<wgt id='1187'> +2.9354326e+11 </wgt>
<wgt id='1188'> +2.9619748e+11 </wgt>
<wgt id='1189'> +2.8864208e+11 </wgt>
<wgt id='1190'> +2.8276082e+11 </wgt>
<wgt id='1191'> +2.9907497e+11 </wgt>
<wgt id='1192'> +2.8697350e+11 </wgt>
<wgt id='1193'> +2.8706452e+11 </wgt>
<wgt id='1194'> +2.7272077e+11 </wgt>
<wgt id='1195'> +2.9277764e+11 </wgt>
<wgt id='1196'> +2.8371578e+11 </wgt>
<wgt id='1197'> +2.9070066e+11 </wgt>
<wgt id='1198'> +2.8017584e+11 </wgt>
<wgt id='1199'> +2.8373576e+11 </wgt>
<wgt id='1200'> +2.9072309e+11 </wgt>
<wgt id='1201'> +2.8949032e+11 </wgt>
<wgt id='1202'> +2.7987048e+11 </wgt>
<wgt id='1203'> +2.8916697e+11 </wgt>
<wgt id='1204'> +2.7503059e+11 </wgt>
<wgt id='1205'> +2.9165257e+11 </wgt>
<wgt id='1206'> +2.7840244e+11 </wgt>
<wgt id='1207'> +2.9630254e+11 </wgt>
<wgt id='1208'> +2.7767090e+11 </wgt>
<wgt id='1209'> +2.8269406e+11 </wgt>
<wgt id='1210'> +2.8359842e+11 </wgt>
<wgt id='1211'> +2.8313940e+11 </wgt>
<wgt id='1212'> +2.7620990e+11 </wgt>
<wgt id='1213'> +2.8021980e+11 </wgt>
<wgt id='1214'> +2.7979110e+11 </wgt>
<wgt id='1215'> +2.8654284e+11 </wgt>
<wgt id='1216'> +2.7426187e+11 </wgt>
<wgt id='1217'> +2.8598182e+11 </wgt>
<wgt id='1218'> +2.8069202e+11 </wgt>
<wgt id='1219'> +2.8775814e+11 </wgt>
<wgt id='1220'> +2.7842554e+11 </wgt>
<wgt id='1221'> +2.7049428e+11 </wgt>
<wgt id='1222'> +2.7891945e+11 </wgt>
<wgt id='1223'> +2.7503616e+11 </wgt>
<wgt id='1224'> +2.8087496e+11 </wgt>
<wgt id='1225'> +2.7842824e+11 </wgt>
<wgt id='1226'> +2.8418879e+11 </wgt>
<wgt id='1227'> +2.7143894e+11 </wgt>
<wgt id='1228'> +2.7625207e+11 </wgt>
<wgt id='1229'> +2.9608703e+11 </wgt>
<wgt id='1230'> +2.8555836e+11 </wgt>
<wgt id='1231'> +2.7335646e+11 </wgt>
<wgt id='1232'> +2.9106616e+11 </wgt>
<wgt id='1233'> +2.7949015e+11 </wgt>
<wgt id='1234'> +2.8270088e+11 </wgt>
<wgt id='1235'> +3.0550085e+11 </wgt>
<wgt id='1236'> +2.8638934e+11 </wgt>
<wgt id='1237'> +2.9512281e+11 </wgt>
<wgt id='1238'> +2.9787911e+11 </wgt>
<wgt id='1239'> +2.9235057e+11 </wgt>
<wgt id='1240'> +2.7705794e+11 </wgt>
<wgt id='1241'> +2.8908145e+11 </wgt>
<wgt id='1242'> +2.8324763e+11 </wgt>
<wgt id='1243'> +2.7843443e+11 </wgt>
<wgt id='1244'> +2.9091848e+11 </wgt>
<wgt id='1245'> +2.6689766e+11 </wgt>
<wgt id='1246'> +3.0285130e+11 </wgt>
<wgt id='1247'> +2.8017530e+11 </wgt>
<wgt id='1248'> +2.7555383e+11 </wgt>
<wgt id='1249'> +2.7566307e+11 </wgt>
<wgt id='1250'> +2.9768501e+11 </wgt>
<wgt id='1251'> +3.1013054e+11 </wgt>
<wgt id='1252'> +2.8817419e+11 </wgt>
<wgt id='1253'> +3.1239507e+11 </wgt>
<wgt id='1254'> +2.9347256e+11 </wgt>
<wgt id='1255'> +3.1731240e+11 </wgt>
<wgt id='1256'> +3.1208125e+11 </wgt>
<wgt id='1257'> +2.9414349e+11 </wgt>
<wgt id='1258'> +2.9394334e+11 </wgt>
<wgt id='1259'> +3.2673857e+11 </wgt>
<wgt id='1260'> +3.4751287e+11 </wgt>
<wgt id='1261'> +3.3180257e+11 </wgt>
<wgt id='1262'> +3.0446187e+11 </wgt>
<wgt id='1263'> +3.0974066e+11 </wgt>
<wgt id='1264'> +3.0521020e+11 </wgt>
<wgt id='1265'> +2.8614274e+11 </wgt>
<wgt id='1266'> +3.0793779e+11 </wgt>
<wgt id='1267'> +3.9421323e+11 </wgt>
<wgt id='1268'> +2.8579342e+11 </wgt>
<wgt id='1269'> +2.8311486e+11 </wgt>
<wgt id='1270'> +3.2431674e+11 </wgt>
<wgt id='1271'> +2.5147474e+11 </wgt>
<wgt id='1272'> +3.0251392e+11 </wgt>
<wgt id='1273'> +2.9444631e+11 </wgt>
<wgt id='1274'> +2.9372964e+11 </wgt>
<wgt id='1275'> +2.8932228e+11 </wgt>
<wgt id='1276'> +3.1907846e+11 </wgt>
<wgt id='1277'> +3.1951299e+11 </wgt>
<wgt id='1278'> +3.1208917e+11 </wgt>
<wgt id='1279'> +2.7676149e+11 </wgt>
<wgt id='1280'> +3.0053671e+11 </wgt>
<wgt id='1281'> +2.8596310e+11 </wgt>
<wgt id='1282'> +2.9244138e+11 </wgt>
<wgt id='1283'> +3.3268828e+11 </wgt>
<wgt id='1284'> +2.9746772e+11 </wgt>
<wgt id='1285'> +3.0101124e+11 </wgt>
<wgt id='1286'> +3.5468702e+11 </wgt>
<wgt id='1287'> +3.5443952e+11 </wgt>
<wgt id='1288'> +3.7595349e+11 </wgt>
<wgt id='1289'> +3.3103008e+11 </wgt>
<wgt id='1290'> +3.1806881e+11 </wgt>
<wgt id='1291'> +2.8354683e+11 </wgt>
<wgt id='1292'> +3.1368391e+11 </wgt>
<wgt id='1293'> +3.0587226e+11 </wgt>
<wgt id='1294'> +3.5891059e+11 </wgt>
<wgt id='1295'> +3.1890690e+11 </wgt>
<wgt id='1296'> +3.6500025e+11 </wgt>
<wgt id='1297'> +2.8109861e+11 </wgt>
<wgt id='1298'> +2.9496354e+11 </wgt>
<wgt id='1299'> +3.1087403e+11 </wgt>
<wgt id='1300'> +2.5970877e+11 </wgt>
<wgt id='1301'> +2.7681272e+11 </wgt>
<wgt id='1302'> +2.7517068e+11 </wgt>
<wgt id='1303'> +3.1496094e+11 </wgt>
<wgt id='1304'> +3.5904289e+11 </wgt>
<wgt id='1305'> +2.9595443e+11 </wgt>
<wgt id='1306'> +3.0738392e+11 </wgt>
<wgt id='1307'> +2.7082590e+11 </wgt>
<wgt id='1308'> +3.4332388e+11 </wgt>
<wgt id='1309'> +3.1428497e+11 </wgt>
<wgt id='1310'> +3.0944587e+11 </wgt>
<wgt id='1311'> +2.8842155e+11 </wgt>
<wgt id='1312'> +3.5128540e+11 </wgt>
<wgt id='1313'> +3.2245743e+11 </wgt>
<wgt id='1314'> +2.7694570e+11 </wgt>
<wgt id='1315'> +2.8422892e+11 </wgt>
<wgt id='1316'> +3.0115269e+11 </wgt>
<wgt id='1317'> +3.4660120e+11 </wgt>
<wgt id='1318'> +2.9147204e+11 </wgt>
<wgt id='1319'> +3.0605778e+11 </wgt>
<wgt id='1320'> +3.2997928e+11 </wgt>
<wgt id='1321'> +3.1849248e+11 </wgt>
<wgt id='1322'> +3.3140002e+11 </wgt>
<wgt id='1323'> +2.6914305e+11 </wgt>
<wgt id='1324'> +3.2694981e+11 </wgt>
<wgt id='1325'> +3.1969456e+11 </wgt>
<wgt id='1326'> +3.2043200e+11 </wgt>
<wgt id='1327'> +3.3481706e+11 </wgt>
<wgt id='1328'> +3.1711855e+11 </wgt>
<wgt id='1329'> +2.9308378e+11 </wgt>
<wgt id='1330'> +2.7641568e+11 </wgt>
<wgt id='1331'> +3.3241862e+11 </wgt>
<wgt id='1332'> +3.1924070e+11 </wgt>
<wgt id='1333'> +3.0477136e+11 </wgt>
<wgt id='1334'> +3.4059601e+11 </wgt>
<wgt id='1335'> +2.7916450e+11 </wgt>
<wgt id='1336'> +3.4767825e+11 </wgt>
<wgt id='1337'> +3.1412475e+11 </wgt>
<wgt id='1338'> +2.8124977e+11 </wgt>
<wgt id='1339'> +2.9977686e+11 </wgt>
<wgt id='1340'> +3.4024819e+11 </wgt>
<wgt id='1341'> +3.7584001e+11 </wgt>
<wgt id='1342'> +2.8537142e+11 </wgt>
<wgt id='1343'> +3.1278705e+11 </wgt>
<wgt id='1344'> +3.3520687e+11 </wgt>
<wgt id='1345'> +2.3337295e+11 </wgt>
<wgt id='1346'> +3.0889535e+11 </wgt>
<wgt id='1347'> +3.0695096e+11 </wgt>
<wgt id='1348'> +2.8857544e+11 </wgt>
<wgt id='1349'> +2.9429335e+11 </wgt>
<wgt id='1350'> +3.4292740e+11 </wgt>
<wgt id='1351'> +2.8708096e+11 </wgt>
<wgt id='1352'> +3.1219293e+11 </wgt>
<wgt id='1353'> +3.1334853e+11 </wgt>
<wgt id='1354'> +3.1936736e+11 </wgt>
<wgt id='1355'> +2.8490916e+11 </wgt>
<wgt id='1356'> +2.8754640e+11 </wgt>
<wgt id='1357'> +2.8819052e+11 </wgt>
<wgt id='1358'> +2.8247403e+11 </wgt>
<wgt id='1359'> +2.8213573e+11 </wgt>
<wgt id='1360'> +2.7941328e+11 </wgt>
<wgt id='1361'> +2.8335275e+11 </wgt>
<wgt id='1362'> +2.9417874e+11 </wgt>
<wgt id='1363'> +2.8447552e+11 </wgt>
<wgt id='1364'> +3.0004488e+11 </wgt>
<wgt id='1365'> +2.8212117e+11 </wgt>
<wgt id='1366'> +2.8304611e+11 </wgt>
<wgt id='1367'> +2.7909661e+11 </wgt>
<wgt id='1368'> +2.8987965e+11 </wgt>
<wgt id='1369'> +2.8806918e+11 </wgt>
<wgt id='1370'> +2.7518396e+11 </wgt>
<wgt id='1371'> +2.7980108e+11 </wgt>
<wgt id='1372'> +2.7871392e+11 </wgt>
<wgt id='1373'> +2.9276456e+11 </wgt>
<wgt id='1374'> +2.8392925e+11 </wgt>
<wgt id='1375'> +2.8734145e+11 </wgt>
<wgt id='1376'> +2.8598279e+11 </wgt>
<wgt id='1377'> +2.8339286e+11 </wgt>
<wgt id='1378'> +2.9077076e+11 </wgt>
<wgt id='1379'> +2.8175147e+11 </wgt>
<wgt id='1380'> +2.8221837e+11 </wgt>
<wgt id='1381'> +2.8837984e+11 </wgt>
<wgt id='1382'> +2.8006473e+11 </wgt>
<wgt id='1383'> +2.8111639e+11 </wgt>
<wgt id='1384'> +2.7502768e+11 </wgt>
<wgt id='1385'> +2.7905909e+11 </wgt>
<wgt id='1386'> +2.8052322e+11 </wgt>
<wgt id='1387'> +2.8560623e+11 </wgt>
<wgt id='1388'> +2.8260117e+11 </wgt>
<wgt id='1389'> +2.7926603e+11 </wgt>
<wgt id='1390'> +2.8844790e+11 </wgt>
<wgt id='1391'> +2.9114671e+11 </wgt>
<wgt id='1392'> +2.7503102e+11 </wgt>
<wgt id='1393'> +2.8955572e+11 </wgt>
<wgt id='1394'> +2.8845524e+11 </wgt>
<wgt id='1395'> +2.7610270e+11 </wgt>
<wgt id='1396'> +2.8487515e+11 </wgt>
<wgt id='1397'> +2.8342160e+11 </wgt>
<wgt id='1398'> +2.9633691e+11 </wgt>
<wgt id='1399'> +2.8171607e+11 </wgt>
<wgt id='1400'> +2.7800892e+11 </wgt>
<wgt id='1401'> +2.8204110e+11 </wgt>
<wgt id='1402'> +2.8674164e+11 </wgt>
<wgt id='1403'> +2.9939452e+11 </wgt>
<wgt id='1404'> +2.8929245e+11 </wgt>
<wgt id='1405'> +2.9843507e+11 </wgt>
<wgt id='1406'> +2.9258133e+11 </wgt>
<wgt id='1407'> +2.9265937e+11 </wgt>
<wgt id='1408'> +2.9980829e+11 </wgt>
<wgt id='1409'> +2.7704131e+11 </wgt>
<wgt id='1410'> +2.7938894e+11 </wgt>
<wgt id='1411'> +2.8427440e+11 </wgt>
<wgt id='1412'> +2.9238768e+11 </wgt>
<wgt id='1413'> +2.9398777e+11 </wgt>
<wgt id='1414'> +2.8806993e+11 </wgt>
<wgt id='1415'> +2.7722554e+11 </wgt>
<wgt id='1416'> +2.8415422e+11 </wgt>
<wgt id='1417'> +2.8029031e+11 </wgt>
<wgt id='1418'> +2.8186204e+11 </wgt>
<wgt id='1419'> +2.8639395e+11 </wgt>
<wgt id='1420'> +2.7025585e+11 </wgt>
<wgt id='1421'> +2.9491037e+11 </wgt>
<wgt id='1422'> +2.7330683e+11 </wgt>
<wgt id='1423'> +2.8587248e+11 </wgt>
<wgt id='1424'> +2.8103318e+11 </wgt>
<wgt id='1425'> +2.8321348e+11 </wgt>
<wgt id='1426'> +2.9072058e+11 </wgt>
<wgt id='1427'> +2.8012212e+11 </wgt>
<wgt id='1428'> +2.7876030e+11 </wgt>
<wgt id='1429'> +2.8522958e+11 </wgt>
<wgt id='1430'> +2.8081807e+11 </wgt>
<wgt id='1431'> +2.8827327e+11 </wgt>
<wgt id='1432'> +2.7514408e+11 </wgt>
<wgt id='1433'> +2.7499734e+11 </wgt>
<wgt id='1434'> +2.8571704e+11 </wgt>
<wgt id='1435'> +2.8743780e+11 </wgt>
<wgt id='1436'> +2.8788772e+11 </wgt>
<wgt id='1437'> +2.8256161e+11 </wgt>
<wgt id='1438'> +2.8409219e+11 </wgt>
<wgt id='1439'> +2.9512815e+11 </wgt>
<wgt id='1440'> +2.8365688e+11 </wgt>
<wgt id='1441'> +2.8038790e+11 </wgt>
<wgt id='1442'> +2.8452778e+11 </wgt>
<wgt id='1443'> +2.7697750e+11 </wgt>
<wgt id='1444'> +2.9682989e+11 </wgt>
<wgt id='1445'> +2.7943672e+11 </wgt>
<wgt id='1446'> +3.0008041e+11 </wgt>
<wgt id='1447'> +2.9047747e+11 </wgt>
<wgt id='1448'> +2.8852911e+11 </wgt>
<wgt id='1449'> +2.8608905e+11 </wgt>
<wgt id='1450'> +2.8156006e+11 </wgt>
<wgt id='1451'> +2.7961977e+11 </wgt>
<wgt id='1452'> +2.8911992e+11 </wgt>
<wgt id='1453'> +2.9337465e+11 </wgt>
<wgt id='1454'> +2.7454952e+11 </wgt>
<wgt id='1455'> +2.8377716e+11 </wgt>
<wgt id='1456'> +2.8138804e+11 </wgt>
<wgt id='1457'> +2.8700213e+11 </wgt>
<wgt id='1458'> +2.9579603e+11 </wgt>
<wgt id='1459'> +3.1571689e+11 </wgt>
<wgt id='1460'> +3.0972499e+11 </wgt>
<wgt id='1461'> +3.8041298e+11 </wgt>
<wgt id='1462'> +3.1022252e+11 </wgt>
<wgt id='1463'> +3.1043142e+11 </wgt>
<wgt id='1464'> +3.0995457e+11 </wgt>
<wgt id='1465'> +3.1029746e+11 </wgt>
<wgt id='1466'> +3.1015406e+11 </wgt>
<wgt id='1467'> +3.1030520e+11 </wgt>
<wgt id='1468'> +3.1008684e+11 </wgt>
<wgt id='1469'> +3.0978361e+11 </wgt>
<wgt id='1470'> +3.1057894e+11 </wgt>
<wgt id='1471'> +3.1066573e+11 </wgt>
<wgt id='1472'> +3.0976599e+11 </wgt>
<wgt id='1473'> +3.1149819e+11 </wgt>
<wgt id='1474'> +3.0899716e+11 </wgt>
<wgt id='1475'> +3.1140948e+11 </wgt>
<wgt id='1476'> +3.0938135e+11 </wgt>
<wgt id='1477'> +3.0967062e+11 </wgt>
<wgt id='1478'> +3.1151228e+11 </wgt>
<wgt id='1479'> +3.1002931e+11 </wgt>
<wgt id='1480'> +3.1036587e+11 </wgt>
<wgt id='1481'> +3.0943561e+11 </wgt>
<wgt id='1482'> +3.1129071e+11 </wgt>
<wgt id='1483'> +3.1023375e+11 </wgt>
<wgt id='1484'> +3.1021608e+11 </wgt>
<wgt id='1485'> +3.1041190e+11 </wgt>
<wgt id='1486'> +3.0976581e+11 </wgt>
<wgt id='1487'> +3.1048612e+11 </wgt>
<wgt id='1488'> +3.0988869e+11 </wgt>
<wgt id='1489'> +3.0981572e+11 </wgt>
<wgt id='1490'> +3.1132619e+11 </wgt>
<wgt id='1491'> +3.1568225e+11 </wgt>
<wgt id='1492'> +3.0718290e+11 </wgt>
<wgt id='1493'> +3.0627624e+11 </wgt>
<wgt id='1494'> +3.2259837e+11 </wgt>
<wgt id='1495'> +3.0912394e+11 </wgt>
<wgt id='1496'> +3.1140394e+11 </wgt>
<wgt id='1497'> +3.1048561e+11 </wgt>
<wgt id='1498'> +3.0986436e+11 </wgt>
<wgt id='1499'> +3.1274209e+11 </wgt>
<wgt id='1500'> +3.0885034e+11 </wgt>
<wgt id='1501'> +3.1030431e+11 </wgt>
<wgt id='1502'> +3.1003559e+11 </wgt>
<wgt id='1503'> +3.0380046e+11 </wgt>
<wgt id='1504'> +3.1769857e+11 </wgt>
<wgt id='1505'> +3.1045645e+11 </wgt>
<wgt id='1506'> +3.0999204e+11 </wgt>
<wgt id='1507'> +3.1633804e+11 </wgt>
<wgt id='1508'> +2.9890065e+11 </wgt>
<wgt id='1509'> +3.1131379e+11 </wgt>
<wgt id='1510'> +3.0549400e+11 </wgt>
<wgt id='1511'> +3.1140018e+11 </wgt>
<wgt id='1512'> +3.1012284e+11 </wgt>
<wgt id='1513'> +3.0983649e+11 </wgt>
<wgt id='1514'> +3.1066705e+11 </wgt>
<wgt id='1515'> +3.1642022e+11 </wgt>
<wgt id='1516'> +3.0819582e+11 </wgt>
<wgt id='1517'> +3.0937859e+11 </wgt>
<wgt id='1518'> +3.1172719e+11 </wgt>
<wgt id='1519'> +3.0776454e+11 </wgt>
<wgt id='1520'> +3.1195749e+11 </wgt>
<wgt id='1521'> +3.0835694e+11 </wgt>
<wgt id='1522'> +3.1124090e+11 </wgt>
<wgt id='1523'> +3.1162254e+11 </wgt>
<wgt id='1524'> +3.1205526e+11 </wgt>
<wgt id='1525'> +3.1048319e+11 </wgt>
<wgt id='1526'> +3.1248439e+11 </wgt>
<wgt id='1527'> +3.1022252e+11 </wgt>
<wgt id='1528'> +3.0742908e+11 </wgt>
<wgt id='1529'> +3.1305591e+11 </wgt>
<wgt id='1530'> +3.0163587e+11 </wgt>
<wgt id='1531'> +3.2063765e+11 </wgt>
<wgt id='1532'> +3.2326601e+11 </wgt>
<wgt id='1533'> +3.1425128e+11 </wgt>
<wgt id='1534'> +3.1823280e+11 </wgt>
<wgt id='1535'> +3.2482261e+11 </wgt>
<wgt id='1536'> +3.1529303e+11 </wgt>
<wgt id='1537'> +3.2559808e+11 </wgt>
<wgt id='1538'> +3.1550265e+11 </wgt>
<wgt id='1539'> +3.2595900e+11 </wgt>
<wgt id='1540'> +3.2428715e+11 </wgt>
<wgt id='1541'> +3.2352386e+11 </wgt>
<wgt id='1542'> +3.2157089e+11 </wgt>
<wgt id='1543'> +3.2380957e+11 </wgt>
<wgt id='1544'> +3.1858963e+11 </wgt>
<wgt id='1545'> +3.1876324e+11 </wgt>
<wgt id='1546'> +3.1710696e+11 </wgt>
<wgt id='1547'> +3.2280992e+11 </wgt>
<wgt id='1548'> +3.2026934e+11 </wgt>
<wgt id='1549'> +3.1702138e+11 </wgt>
<wgt id='1550'> +3.2412220e+11 </wgt>
<wgt id='1551'> +3.2137006e+11 </wgt>
<wgt id='1552'> +3.2135860e+11 </wgt>
<wgt id='1553'> +3.3038997e+11 </wgt>
<wgt id='1554'> +3.2147754e+11 </wgt>
<wgt id='1555'> +3.2159976e+11 </wgt>
<wgt id='1556'> +3.2275885e+11 </wgt>
<wgt id='1557'> +3.2058187e+11 </wgt>
<wgt id='1558'> +3.2081813e+11 </wgt>
<wgt id='1559'> +3.1845264e+11 </wgt>
<wgt id='1560'> +3.2049170e+11 </wgt>
<wgt id='1561'> +3.1970100e+11 </wgt>
<wgt id='1562'> +3.1741025e+11 </wgt>
<wgt id='1563'> +3.2111828e+11 </wgt>
<wgt id='1564'> +3.2027602e+11 </wgt>
<wgt id='1565'> +3.2537078e+11 </wgt>
<wgt id='1566'> +3.2059963e+11 </wgt>
<wgt id='1567'> +3.1874264e+11 </wgt>
<wgt id='1568'> +3.2041799e+11 </wgt>
<wgt id='1569'> +3.1991340e+11 </wgt>
<wgt id='1570'> +3.2827190e+11 </wgt>
<wgt id='1571'> +3.2040587e+11 </wgt>
<wgt id='1572'> +3.2074172e+11 </wgt>
<wgt id='1573'> +3.2727905e+11 </wgt>
<wgt id='1574'> +2.4244611e+11 </wgt>
<wgt id='1575'> +2.4250694e+11 </wgt>
<wgt id='1576'> +2.4237641e+11 </wgt>
<wgt id='1577'> +2.4246356e+11 </wgt>
<wgt id='1578'> +2.4300503e+11 </wgt>
<wgt id='1579'> +2.4316952e+11 </wgt>
<wgt id='1580'> +2.4293002e+11 </wgt>
<wgt id='1581'> +2.4213527e+11 </wgt>
<wgt id='1582'> +2.4190407e+11 </wgt>
<wgt id='1583'> +2.4194758e+11 </wgt>
<wgt id='1584'> +2.4300309e+11 </wgt>
<wgt id='1585'> +2.4278937e+11 </wgt>
<wgt id='1586'> +2.4186864e+11 </wgt>
<wgt id='1587'> +2.4192315e+11 </wgt>
<wgt id='1588'> +2.4153671e+11 </wgt>
<wgt id='1589'> +2.4204152e+11 </wgt>
<wgt id='1590'> +2.4230721e+11 </wgt>
<wgt id='1591'> +2.4252772e+11 </wgt>
<wgt id='1592'> +2.4154389e+11 </wgt>
<wgt id='1593'> +2.4117756e+11 </wgt>
<wgt id='1594'> +2.4372202e+11 </wgt>
<wgt id='1595'> +2.3970036e+11 </wgt>
<wgt id='1596'> +2.4720727e+11 </wgt>
<wgt id='1597'> +2.4426145e+11 </wgt>
<wgt id='1598'> +2.4427355e+11 </wgt>
<wgt id='1599'> +2.3923963e+11 </wgt>
<wgt id='1600'> +2.4769191e+11 </wgt>
<wgt id='1601'> +2.4459173e+11 </wgt>
<wgt id='1602'> +2.4262648e+11 </wgt>
<wgt id='1603'> +2.5944144e+11 </wgt>
<wgt id='1604'> +2.4235037e+11 </wgt>
</rwgt>
</event>
<event>
 9      1 +2.8343000e+11 1.40000000e+03 7.81738600e-03 7.88881200e-02
       21 -1    0    0  504  503 +0.0000000000e+00 +0.0000000000e+00 +4.0543634565e+02 4.0543634565e+02 0.0000000000e+00 0.0000e+00 -1.0000e+00
       21 -1    0    0  503  504 -0.0000000000e+00 -0.0000000000e+00 -1.2085740252e+03 1.2085740252e+03 0.0000000000e+00 0.0000e+00 -1.0000e+00
       45  2    1    2    0    0 -1.1368683772e-13 +5.6843418861e-14 -8.0313767960e+02 1.6140103709e+03 1.3999997661e+03 0.0000e+00 0.0000e+00
       25  2    3    3    0    0 +4.0544005332e+02 -2.1650635906e+02 -9.9869461120e+02 1.1064680491e+03 1.2499590724e+02 0.0000e+00 0.0000e+00
       35  2    3    3    0    0 -4.0544005332e+02 +2.1650635906e+02 +1.9555693160e+02 5.0754232182e+02 9.0000303293e+01 0.0000e+00 0.0000e+00
        5  1    5    5  501    0 -5.1274858660e+01 +4.6332960314e+00 +4.4053380969e+01 6.7889886827e+01 4.2140000000e+00 0.0000e+00 -1.0000e+00
       -5  1    5    5    0  501 -3.5416519466e+02 +2.1187306302e+02 +1.5150355064e+02 4.3965243499e+02 4.2140000000e+00 0.0000e+00 -1.0000e+00
        5  1    4    4  502    0 +2.6234860648e+02 -1.7206946020e+02 -5.4763197860e+02 6.3115230510e+02 4.2140000000e+00 0.0000e+00 -1.0000e+00
       -5  1    4    4    0  502 +1.4309144684e+02 -4.4436898856e+01 -4.5106263260e+02 4.7531574397e+02 4.2140000000e+00 0.0000e+00 -1.0000e+00
<mgrwt>
<rscale>  0 0.13999998E+04</rscale>
<asrwt>0</asrwt>
<pdfrwt beam="1">  1       21 0.62374824E-01 0.13999998E+04</pdfrwt>
<pdfrwt beam="2">  1       21 0.18593446E+00 0.13999998E+04</pdfrwt>
<totfact> 0.27569405E+02</totfact>
</mgrwt>
<rwgt>
<wgt id='1001'> +2.8343000e+11 </wgt>
<wgt id='1002'> +3.0357531e+11 </wgt>
<wgt id='1003'> +3.0356693e+11 </wgt>
<wgt id='1004'> +3.4297741e+11 </wgt>
<wgt id='1005'> +2.8343000e+11 </wgt>
<wgt id='1006'> +2.8343000e+11 </wgt>
<wgt id='1007'> +3.0357531e+11 </wgt>
<wgt id='1008'> +3.0356693e+11 </wgt>
<wgt id='1009'> +3.4297741e+11 </wgt>
<wgt id='1010'> +2.8343000e+11 </wgt>
<wgt id='1011'> +2.8343000e+11 </wgt>
<wgt id='1012'> +3.0357531e+11 </wgt>
<wgt id='1013'> +3.0356693e+11 </wgt>
<wgt id='1014'> +3.4297741e+11 </wgt>
<wgt id='1015'> +2.8343000e+11 </wgt>
<wgt id='1016'> +2.5390351e+11 </wgt>
<wgt id='1017'> +2.7080871e+11 </wgt>
<wgt id='1018'> +2.7080173e+11 </wgt>
<wgt id='1019'> +3.0356693e+11 </wgt>
<wgt id='1020'> +2.5390351e+11 </wgt>
<wgt id='1021'> +2.5390351e+11 </wgt>
<wgt id='1022'> +2.7080871e+11 </wgt>
<wgt id='1023'> +2.7080173e+11 </wgt>
<wgt id='1024'> +3.0356693e+11 </wgt>
<wgt id='1025'> +2.5390351e+11 </wgt>
<wgt id='1026'> +2.5390351e+11 </wgt>
<wgt id='1027'> +2.7080871e+11 </wgt>
<wgt id='1028'> +2.7080173e+11 </wgt>
<wgt id='1029'> +3.0356693e+11 </wgt>
<wgt id='1030'> +2.5390351e+11 </wgt>
<wgt id='1031'> +3.1872556e+11 </wgt>
<wgt id='1032'> +3.4298750e+11 </wgt>
<wgt id='1033'> +3.4297741e+11 </wgt>
<wgt id='1034'> +3.9091715e+11 </wgt>
<wgt id='1035'> +3.1872556e+11 </wgt>
<wgt id='1036'> +3.1872556e+11 </wgt>
<wgt id='1037'> +3.4298750e+11 </wgt>
<wgt id='1038'> +3.4297741e+11 </wgt>
<wgt id='1039'> +3.9091715e+11 </wgt>
<wgt id='1040'> +3.1872556e+11 </wgt>
<wgt id='1041'> +3.1872556e+11 </wgt>
<wgt id='1042'> +3.4298750e+11 </wgt>
<wgt id='1043'> +3.4297741e+11 </wgt>
<wgt id='1044'> +3.9091715e+11 </wgt>
<wgt id='1045'> +3.1872556e+11 </wgt>
<wgt id='1046'> +2.8343000e+11 </wgt>
<wgt id='1047'> +2.8343000e+11 </wgt>
<wgt id='1048'> +2.8343000e+11 </wgt>
<wgt id='1049'> +2.8289709e+11 </wgt>
<wgt id='1050'> +2.8322844e+11 </wgt>
<wgt id='1051'> +2.8328323e+11 </wgt>
<wgt id='1052'> +2.8430480e+11 </wgt>
<wgt id='1053'> +2.8165073e+11 </wgt>
<wgt id='1054'> +2.8372684e+11 </wgt>
<wgt id='1055'> +2.8219378e+11 </wgt>
<wgt id='1056'> +2.8216044e+11 </wgt>
<wgt id='1057'> +2.8326289e+11 </wgt>
<wgt id='1058'> +2.8275579e+11 </wgt>
<wgt id='1059'> +2.8529603e+11 </wgt>
<wgt id='1060'> +2.8379346e+11 </wgt>
<wgt id='1061'> +2.8395093e+11 </wgt>
<wgt id='1062'> +2.8430055e+11 </wgt>
<wgt id='1063'> +2.8458660e+11 </wgt>
<wgt id='1064'> +2.8405777e+11 </wgt>
<wgt id='1065'> +2.8469197e+11 </wgt>
<wgt id='1066'> +2.8132859e+11 </wgt>
<wgt id='1067'> +2.8195990e+11 </wgt>
<wgt id='1068'> +2.8348880e+11 </wgt>
<wgt id='1069'> +2.8257222e+11 </wgt>
<wgt id='1070'> +2.8399576e+11 </wgt>
<wgt id='1071'> +2.8291367e+11 </wgt>
<wgt id='1072'> +2.8274047e+11 </wgt>
<wgt id='1073'> +2.8299058e+11 </wgt>
<wgt id='1074'> +2.8296091e+11 </wgt>
<wgt id='1075'> +2.8430593e+11 </wgt>
<wgt id='1076'> +2.8150785e+11 </wgt>
<wgt id='1077'> +2.8202350e+11 </wgt>
<wgt id='1078'> +2.8414010e+11 </wgt>
<wgt id='1079'> +2.8219415e+11 </wgt>
<wgt id='1080'> +2.8316790e+11 </wgt>
<wgt id='1081'> +2.8295514e+11 </wgt>
<wgt id='1082'> +2.8221424e+11 </wgt>
<wgt id='1083'> +2.8414587e+11 </wgt>
<wgt id='1084'> +2.8394830e+11 </wgt>
<wgt id='1085'> +2.8273742e+11 </wgt>
<wgt id='1086'> +2.8321257e+11 </wgt>
<wgt id='1087'> +2.8327890e+11 </wgt>
<wgt id='1088'> +2.8296959e+11 </wgt>
<wgt id='1089'> +2.8254484e+11 </wgt>
<wgt id='1090'> +2.8404040e+11 </wgt>
<wgt id='1091'> +2.8355215e+11 </wgt>
<wgt id='1092'> +2.8370461e+11 </wgt>
<wgt id='1093'> +2.8345630e+11 </wgt>
<wgt id='1094'> +2.8251425e+11 </wgt>
<wgt id='1095'> +2.8364170e+11 </wgt>
<wgt id='1096'> +2.8343032e+11 </wgt>
<wgt id='1097'> +2.8291400e+11 </wgt>
<wgt id='1098'> +2.8315685e+11 </wgt>
<wgt id='1099'> +2.8321667e+11 </wgt>
<wgt id='1100'> +2.8405687e+11 </wgt>
<wgt id='1101'> +2.8350921e+11 </wgt>
<wgt id='1102'> +2.8333846e+11 </wgt>
<wgt id='1103'> +2.8284857e+11 </wgt>
<wgt id='1104'> +2.8321961e+11 </wgt>
<wgt id='1105'> +2.8351874e+11 </wgt>
<wgt id='1106'> +2.8376487e+11 </wgt>
<wgt id='1107'> +2.8356123e+11 </wgt>
<wgt id='1108'> +2.8323100e+11 </wgt>
<wgt id='1109'> +2.8325350e+11 </wgt>
<wgt id='1110'> +2.8369024e+11 </wgt>
<wgt id='1111'> +2.8362700e+11 </wgt>
<wgt id='1112'> +2.8336982e+11 </wgt>
<wgt id='1113'> +2.8376939e+11 </wgt>
<wgt id='1114'> +2.8314142e+11 </wgt>
<wgt id='1115'> +2.8307274e+11 </wgt>
<wgt id='1116'> +2.8399000e+11 </wgt>
<wgt id='1117'> +2.8335827e+11 </wgt>
<wgt id='1118'> +2.8367373e+11 </wgt>
<wgt id='1119'> +2.8309182e+11 </wgt>
<wgt id='1120'> +2.8315152e+11 </wgt>
<wgt id='1121'> +2.8351242e+11 </wgt>
<wgt id='1122'> +2.8313248e+11 </wgt>
<wgt id='1123'> +2.8337869e+11 </wgt>
<wgt id='1124'> +2.8343763e+11 </wgt>
<wgt id='1125'> +2.8362370e+11 </wgt>
<wgt id='1126'> +2.8354872e+11 </wgt>
<wgt id='1127'> +2.8328292e+11 </wgt>
<wgt id='1128'> +2.8340698e+11 </wgt>
<wgt id='1129'> +2.8330027e+11 </wgt>
<wgt id='1130'> +2.8345971e+11 </wgt>
<wgt id='1131'> +2.8388188e+11 </wgt>
<wgt id='1132'> +2.8333655e+11 </wgt>
<wgt id='1133'> +2.8355487e+11 </wgt>
<wgt id='1134'> +2.8341472e+11 </wgt>
<wgt id='1135'> +2.8346461e+11 </wgt>
<wgt id='1136'> +2.8334480e+11 </wgt>
<wgt id='1137'> +2.8323084e+11 </wgt>
<wgt id='1138'> +2.8357181e+11 </wgt>
<wgt id='1139'> +2.8350676e+11 </wgt>
<wgt id='1140'> +2.8368540e+11 </wgt>
<wgt id='1141'> +2.8321445e+11 </wgt>
<wgt id='1142'> +2.8348092e+11 </wgt>
<wgt id='1143'> +2.8361534e+11 </wgt>
<wgt id='1144'> +2.8332730e+11 </wgt>
<wgt id='1145'> +2.8357779e+11 </wgt>
<wgt id='1146'> +2.8347440e+11 </wgt>
<wgt id='1147'> +2.8348725e+11 </wgt>
<wgt id='1148'> +2.8343000e+11 </wgt>
<wgt id='1149'> +2.8343000e+11 </wgt>
<wgt id='1150'> +2.9730763e+11 </wgt>
<wgt id='1151'> +2.7701470e+11 </wgt>
<wgt id='1152'> +2.7578272e+11 </wgt>
<wgt id='1153'> +2.8580713e+11 </wgt>
<wgt id='1154'> +2.8148916e+11 </wgt>
<wgt id='1155'> +2.9395026e+11 </wgt>
<wgt id='1156'> +2.7819024e+11 </wgt>
<wgt id='1157'> +2.7468934e+11 </wgt>
<wgt id='1158'> +2.7701940e+11 </wgt>
<wgt id='1159'> +2.9975059e+11 </wgt>
<wgt id='1160'> +2.8548367e+11 </wgt>
<wgt id='1161'> +2.8889264e+11 </wgt>
<wgt id='1162'> +2.8539719e+11 </wgt>
<wgt id='1163'> +2.8650027e+11 </wgt>
<wgt id='1164'> +2.7355209e+11 </wgt>
<wgt id='1165'> +2.7813449e+11 </wgt>
<wgt id='1166'> +2.8313707e+11 </wgt>
<wgt id='1167'> +2.7798885e+11 </wgt>
<wgt id='1168'> +2.7413878e+11 </wgt>
<wgt id='1169'> +2.7597082e+11 </wgt>
<wgt id='1170'> +2.8426461e+11 </wgt>
<wgt id='1171'> +2.7307443e+11 </wgt>
<wgt id='1172'> +2.7437371e+11 </wgt>
<wgt id='1173'> +2.8548986e+11 </wgt>
<wgt id='1174'> +2.7674902e+11 </wgt>
<wgt id='1175'> +2.7851396e+11 </wgt>
<wgt id='1176'> +2.8694548e+11 </wgt>
<wgt id='1177'> +2.7826919e+11 </wgt>
<wgt id='1178'> +2.8435053e+11 </wgt>
<wgt id='1179'> +2.8421444e+11 </wgt>
<wgt id='1180'> +2.8526716e+11 </wgt>
<wgt id='1181'> +2.9114619e+11 </wgt>
<wgt id='1182'> +2.8016606e+11 </wgt>
<wgt id='1183'> +2.8938455e+11 </wgt>
<wgt id='1184'> +2.8143750e+11 </wgt>
<wgt id='1185'> +2.8829492e+11 </wgt>
<wgt id='1186'> +2.7774856e+11 </wgt>
<wgt id='1187'> +2.8441206e+11 </wgt>
<wgt id='1188'> +2.8871993e+11 </wgt>
<wgt id='1189'> +2.8178602e+11 </wgt>
<wgt id='1190'> +2.8063715e+11 </wgt>
<wgt id='1191'> +2.9037749e+11 </wgt>
<wgt id='1192'> +2.8830838e+11 </wgt>
<wgt id='1193'> +2.9024093e+11 </wgt>
<wgt id='1194'> +2.7977966e+11 </wgt>
<wgt id='1195'> +2.8527236e+11 </wgt>
<wgt id='1196'> +2.9138773e+11 </wgt>
<wgt id='1197'> +2.9077237e+11 </wgt>
<wgt id='1198'> +2.8573962e+11 </wgt>
<wgt id='1199'> +2.8792959e+11 </wgt>
<wgt id='1200'> +2.8861932e+11 </wgt>
<wgt id='1201'> +2.8109168e+11 </wgt>
<wgt id='1202'> +2.8594417e+11 </wgt>
<wgt id='1203'> +2.8258938e+11 </wgt>
<wgt id='1204'> +2.8172654e+11 </wgt>
<wgt id='1205'> +2.8399270e+11 </wgt>
<wgt id='1206'> +2.8018006e+11 </wgt>
<wgt id='1207'> +2.9111889e+11 </wgt>
<wgt id='1208'> +2.7062630e+11 </wgt>
<wgt id='1209'> +2.8402531e+11 </wgt>
<wgt id='1210'> +2.8659483e+11 </wgt>
<wgt id='1211'> +2.8331673e+11 </wgt>
<wgt id='1212'> +2.8306520e+11 </wgt>
<wgt id='1213'> +2.8798728e+11 </wgt>
<wgt id='1214'> +2.7812969e+11 </wgt>
<wgt id='1215'> +2.8257458e+11 </wgt>
<wgt id='1216'> +2.7967346e+11 </wgt>
<wgt id='1217'> +2.7886743e+11 </wgt>
<wgt id='1218'> +2.8500243e+11 </wgt>
<wgt id='1219'> +2.9355696e+11 </wgt>
<wgt id='1220'> +2.8010533e+11 </wgt>
<wgt id='1221'> +2.7689454e+11 </wgt>
<wgt id='1222'> +2.7863534e+11 </wgt>
<wgt id='1223'> +2.7350062e+11 </wgt>
<wgt id='1224'> +2.8255356e+11 </wgt>
<wgt id='1225'> +2.8625988e+11 </wgt>
<wgt id='1226'> +2.8607461e+11 </wgt>
<wgt id='1227'> +2.8049739e+11 </wgt>
<wgt id='1228'> +2.8237630e+11 </wgt>
<wgt id='1229'> +3.0058386e+11 </wgt>
<wgt id='1230'> +2.8908900e+11 </wgt>
<wgt id='1231'> +2.7813449e+11 </wgt>
<wgt id='1232'> +2.8739161e+11 </wgt>
<wgt id='1233'> +2.7638775e+11 </wgt>
<wgt id='1234'> +2.7799499e+11 </wgt>
<wgt id='1235'> +2.9973609e+11 </wgt>
<wgt id='1236'> +2.7815027e+11 </wgt>
<wgt id='1237'> +2.8955460e+11 </wgt>
<wgt id='1238'> +2.8118878e+11 </wgt>
<wgt id='1239'> +2.8618315e+11 </wgt>
<wgt id='1240'> +2.7722709e+11 </wgt>
<wgt id='1241'> +2.8681597e+11 </wgt>
<wgt id='1242'> +2.8019744e+11 </wgt>
<wgt id='1243'> +2.8502821e+11 </wgt>
<wgt id='1244'> +2.8854228e+11 </wgt>
<wgt id='1245'> +2.7762778e+11 </wgt>
<wgt id='1246'> +3.0425747e+11 </wgt>
<wgt id='1247'> +2.8138900e+11 </wgt>
<wgt id='1248'> +2.7320301e+11 </wgt>
<wgt id='1249'> +2.7559029e+11 </wgt>
<wgt id='1250'> +2.9344214e+11 </wgt>
<wgt id='1251'> +3.0122697e+11 </wgt>
<wgt id='1252'> +2.8797104e+11 </wgt>
<wgt id='1253'> +2.9090147e+11 </wgt>
<wgt id='1254'> +2.8913480e+11 </wgt>
<wgt id='1255'> +3.0267665e+11 </wgt>
<wgt id='1256'> +3.0284322e+11 </wgt>
<wgt id='1257'> +2.9930747e+11 </wgt>
<wgt id='1258'> +2.9322022e+11 </wgt>
<wgt id='1259'> +3.0280449e+11 </wgt>
<wgt id='1260'> +3.2737396e+11 </wgt>
<wgt id='1261'> +3.1455940e+11 </wgt>
<wgt id='1262'> +2.9350054e+11 </wgt>
<wgt id='1263'> +2.9897315e+11 </wgt>
<wgt id='1264'> +3.0194596e+11 </wgt>
<wgt id='1265'> +2.9410109e+11 </wgt>
<wgt id='1266'> +3.0310961e+11 </wgt>
<wgt id='1267'> +3.4259001e+11 </wgt>
<wgt id='1268'> +2.8956829e+11 </wgt>
<wgt id='1269'> +2.8663728e+11 </wgt>
<wgt id='1270'> +3.0307630e+11 </wgt>
<wgt id='1271'> +2.6814884e+11 </wgt>
<wgt id='1272'> +2.9315013e+11 </wgt>
<wgt id='1273'> +2.9061906e+11 </wgt>
<wgt id='1274'> +2.8647126e+11 </wgt>
<wgt id='1275'> +2.9423857e+11 </wgt>
<wgt id='1276'> +3.0202066e+11 </wgt>
<wgt id='1277'> +2.9710542e+11 </wgt>
<wgt id='1278'> +2.9788259e+11 </wgt>
<wgt id='1279'> +2.7947022e+11 </wgt>
<wgt id='1280'> +2.8616969e+11 </wgt>
<wgt id='1281'> +2.8492667e+11 </wgt>
<wgt id='1282'> +2.9507793e+11 </wgt>
<wgt id='1283'> +3.0814354e+11 </wgt>
<wgt id='1284'> +3.0909932e+11 </wgt>
<wgt id='1285'> +3.0797097e+11 </wgt>
<wgt id='1286'> +3.3005119e+11 </wgt>
<wgt id='1287'> +3.0830917e+11 </wgt>
<wgt id='1288'> +3.3326367e+11 </wgt>
<wgt id='1289'> +3.1441928e+11 </wgt>
<wgt id='1290'> +3.1236925e+11 </wgt>
<wgt id='1291'> +2.7823885e+11 </wgt>
<wgt id='1292'> +3.0230756e+11 </wgt>
<wgt id='1293'> +3.0287026e+11 </wgt>
<wgt id='1294'> +3.2234713e+11 </wgt>
<wgt id='1295'> +3.0896566e+11 </wgt>
<wgt id='1296'> +3.2743092e+11 </wgt>
<wgt id='1297'> +2.9111246e+11 </wgt>
<wgt id='1298'> +2.8850617e+11 </wgt>
<wgt id='1299'> +3.0339239e+11 </wgt>
<wgt id='1300'> +2.8413349e+11 </wgt>
<wgt id='1301'> +2.7931145e+11 </wgt>
<wgt id='1302'> +2.8198255e+11 </wgt>
<wgt id='1303'> +3.0275728e+11 </wgt>
<wgt id='1304'> +3.2326617e+11 </wgt>
<wgt id='1305'> +2.9827444e+11 </wgt>
<wgt id='1306'> +3.0586799e+11 </wgt>
<wgt id='1307'> +2.8994571e+11 </wgt>
<wgt id='1308'> +3.3001582e+11 </wgt>
<wgt id='1309'> +3.0002634e+11 </wgt>
<wgt id='1310'> +3.0316067e+11 </wgt>
<wgt id='1311'> +2.9944848e+11 </wgt>
<wgt id='1312'> +3.1148043e+11 </wgt>
<wgt id='1313'> +3.0276331e+11 </wgt>
<wgt id='1314'> +2.9522825e+11 </wgt>
<wgt id='1315'> +2.8730759e+11 </wgt>
<wgt id='1316'> +2.9963865e+11 </wgt>
<wgt id='1317'> +3.1031921e+11 </wgt>
<wgt id='1318'> +2.9102172e+11 </wgt>
<wgt id='1319'> +2.9743516e+11 </wgt>
<wgt id='1320'> +3.1628182e+11 </wgt>
<wgt id='1321'> +3.0076919e+11 </wgt>
<wgt id='1322'> +3.0824624e+11 </wgt>
<wgt id='1323'> +2.9042895e+11 </wgt>
<wgt id='1324'> +3.0708938e+11 </wgt>
<wgt id='1325'> +3.1240915e+11 </wgt>
<wgt id='1326'> +3.0851836e+11 </wgt>
<wgt id='1327'> +3.1067199e+11 </wgt>
<wgt id='1328'> +2.9784365e+11 </wgt>
<wgt id='1329'> +2.9775693e+11 </wgt>
<wgt id='1330'> +2.8565808e+11 </wgt>
<wgt id='1331'> +3.2245337e+11 </wgt>
<wgt id='1332'> +2.9575033e+11 </wgt>
<wgt id='1333'> +3.0193417e+11 </wgt>
<wgt id='1334'> +3.1710316e+11 </wgt>
<wgt id='1335'> +2.9242193e+11 </wgt>
<wgt id='1336'> +3.1430840e+11 </wgt>
<wgt id='1337'> +3.0898379e+11 </wgt>
<wgt id='1338'> +2.8751236e+11 </wgt>
<wgt id='1339'> +3.1538362e+11 </wgt>
<wgt id='1340'> +3.0762830e+11 </wgt>
<wgt id='1341'> +3.2080741e+11 </wgt>
<wgt id='1342'> +3.0415941e+11 </wgt>
<wgt id='1343'> +3.0889249e+11 </wgt>
<wgt id='1344'> +3.1537607e+11 </wgt>
<wgt id='1345'> +2.6549534e+11 </wgt>
<wgt id='1346'> +3.0383030e+11 </wgt>
<wgt id='1347'> +2.9187342e+11 </wgt>
<wgt id='1348'> +2.9005704e+11 </wgt>
<wgt id='1349'> +2.8753308e+11 </wgt>
<wgt id='1350'> +3.0797767e+11 </wgt>
<wgt id='1351'> +2.9177175e+11 </wgt>
<wgt id='1352'> +3.0339206e+11 </wgt>
<wgt id='1353'> +3.0033540e+11 </wgt>
<wgt id='1354'> +3.0949182e+11 </wgt>
<wgt id='1355'> +2.7790105e+11 </wgt>
<wgt id='1356'> +2.8052918e+11 </wgt>
<wgt id='1357'> +2.7830798e+11 </wgt>
<wgt id='1358'> +2.7621369e+11 </wgt>
<wgt id='1359'> +2.7736693e+11 </wgt>
<wgt id='1360'> +2.7289975e+11 </wgt>
<wgt id='1361'> +2.7677470e+11 </wgt>
<wgt id='1362'> +2.8473238e+11 </wgt>
<wgt id='1363'> +2.7534645e+11 </wgt>
<wgt id='1364'> +2.8297888e+11 </wgt>
<wgt id='1365'> +2.7577424e+11 </wgt>
<wgt id='1366'> +2.7462535e+11 </wgt>
<wgt id='1367'> +2.7780294e+11 </wgt>
<wgt id='1368'> +2.7840821e+11 </wgt>
<wgt id='1369'> +2.8107481e+11 </wgt>
<wgt id='1370'> +2.7500365e+11 </wgt>
<wgt id='1371'> +2.7809951e+11 </wgt>
<wgt id='1372'> +2.7965123e+11 </wgt>
<wgt id='1373'> +2.8113895e+11 </wgt>
<wgt id='1374'> +2.7069024e+11 </wgt>
<wgt id='1375'> +2.7888193e+11 </wgt>
<wgt id='1376'> +2.7718424e+11 </wgt>
<wgt id='1377'> +2.7845132e+11 </wgt>
<wgt id='1378'> +2.7737237e+11 </wgt>
<wgt id='1379'> +2.7635575e+11 </wgt>
<wgt id='1380'> +2.7543321e+11 </wgt>
<wgt id='1381'> +2.8250299e+11 </wgt>
<wgt id='1382'> +2.7680149e+11 </wgt>
<wgt id='1383'> +2.7560841e+11 </wgt>
<wgt id='1384'> +2.7415566e+11 </wgt>
<wgt id='1385'> +2.7362493e+11 </wgt>
<wgt id='1386'> +2.7653601e+11 </wgt>
<wgt id='1387'> +2.7612896e+11 </wgt>
<wgt id='1388'> +2.7327887e+11 </wgt>
<wgt id='1389'> +2.7673601e+11 </wgt>
<wgt id='1390'> +2.7982669e+11 </wgt>
<wgt id='1391'> +2.7643659e+11 </wgt>
<wgt id='1392'> +2.7460185e+11 </wgt>
<wgt id='1393'> +2.7848681e+11 </wgt>
<wgt id='1394'> +2.7664486e+11 </wgt>
<wgt id='1395'> +2.7299768e+11 </wgt>
<wgt id='1396'> +2.7834811e+11 </wgt>
<wgt id='1397'> +2.7861889e+11 </wgt>
<wgt id='1398'> +2.8063699e+11 </wgt>
<wgt id='1399'> +2.7552140e+11 </wgt>
<wgt id='1400'> +2.7318086e+11 </wgt>
<wgt id='1401'> +2.7848048e+11 </wgt>
<wgt id='1402'> +2.8051295e+11 </wgt>
<wgt id='1403'> +2.8521782e+11 </wgt>
<wgt id='1404'> +2.8020377e+11 </wgt>
<wgt id='1405'> +2.8464008e+11 </wgt>
<wgt id='1406'> +2.8021609e+11 </wgt>
<wgt id='1407'> +2.7835232e+11 </wgt>
<wgt id='1408'> +2.8376495e+11 </wgt>
<wgt id='1409'> +2.7369575e+11 </wgt>
<wgt id='1410'> +2.7103613e+11 </wgt>
<wgt id='1411'> +2.7763114e+11 </wgt>
<wgt id='1412'> +2.7636119e+11 </wgt>
<wgt id='1413'> +2.7820355e+11 </wgt>
<wgt id='1414'> +2.8039875e+11 </wgt>
<wgt id='1415'> +2.7958527e+11 </wgt>
<wgt id='1416'> +2.7968314e+11 </wgt>
<wgt id='1417'> +2.7470683e+11 </wgt>
<wgt id='1418'> +2.7758558e+11 </wgt>
<wgt id='1419'> +2.8155313e+11 </wgt>
<wgt id='1420'> +2.7475159e+11 </wgt>
<wgt id='1421'> +2.8427455e+11 </wgt>
<wgt id='1422'> +2.7104306e+11 </wgt>
<wgt id='1423'> +2.8235385e+11 </wgt>
<wgt id='1424'> +2.7881465e+11 </wgt>
<wgt id='1425'> +2.7847003e+11 </wgt>
<wgt id='1426'> +2.8008343e+11 </wgt>
<wgt id='1427'> +2.7697989e+11 </wgt>
<wgt id='1428'> +2.7682217e+11 </wgt>
<wgt id='1429'> +2.7783873e+11 </wgt>
<wgt id='1430'> +2.7421839e+11 </wgt>
<wgt id='1431'> +2.7330866e+11 </wgt>
<wgt id='1432'> +2.7619800e+11 </wgt>
<wgt id='1433'> +2.7498051e+11 </wgt>
<wgt id='1434'> +2.8532263e+11 </wgt>
<wgt id='1435'> +2.7693629e+11 </wgt>
<wgt id='1436'> +2.8170767e+11 </wgt>
<wgt id='1437'> +2.7749809e+11 </wgt>
<wgt id='1438'> +2.7732257e+11 </wgt>
<wgt id='1439'> +2.8269498e+11 </wgt>
<wgt id='1440'> +2.7987371e+11 </wgt>
<wgt id='1441'> +2.7486852e+11 </wgt>
<wgt id='1442'> +2.8207147e+11 </wgt>
<wgt id='1443'> +2.7504722e+11 </wgt>
<wgt id='1444'> +2.8129390e+11 </wgt>
<wgt id='1445'> +2.7831596e+11 </wgt>
<wgt id='1446'> +2.8424851e+11 </wgt>
<wgt id='1447'> +2.7620505e+11 </wgt>
<wgt id='1448'> +2.8040681e+11 </wgt>
<wgt id='1449'> +2.8083653e+11 </wgt>
<wgt id='1450'> +2.7723823e+11 </wgt>
<wgt id='1451'> +2.7892021e+11 </wgt>
<wgt id='1452'> +2.8003911e+11 </wgt>
<wgt id='1453'> +2.7934005e+11 </wgt>
<wgt id='1454'> +2.6976377e+11 </wgt>
<wgt id='1455'> +2.7657427e+11 </wgt>
<wgt id='1456'> +2.7670347e+11 </wgt>
<wgt id='1457'> +2.7712764e+11 </wgt>
<wgt id='1458'> +2.8290792e+11 </wgt>
<wgt id='1459'> +3.1033894e+11 </wgt>
<wgt id='1460'> +3.0532820e+11 </wgt>
<wgt id='1461'> +3.6122826e+11 </wgt>
<wgt id='1462'> +2.9967976e+11 </wgt>
<wgt id='1463'> +2.9990768e+11 </wgt>
<wgt id='1464'> +2.9938744e+11 </wgt>
<wgt id='1465'> +2.9974534e+11 </wgt>
<wgt id='1466'> +2.9961985e+11 </wgt>
<wgt id='1467'> +2.9980694e+11 </wgt>
<wgt id='1468'> +2.9947106e+11 </wgt>
<wgt id='1469'> +2.9924475e+11 </wgt>
<wgt id='1470'> +3.0003306e+11 </wgt>
<wgt id='1471'> +3.0013489e+11 </wgt>
<wgt id='1472'> +2.9921097e+11 </wgt>
<wgt id='1473'> +3.0086066e+11 </wgt>
<wgt id='1474'> +2.9854550e+11 </wgt>
<wgt id='1475'> +3.0080049e+11 </wgt>
<wgt id='1476'> +2.9888527e+11 </wgt>
<wgt id='1477'> +2.9912768e+11 </wgt>
<wgt id='1478'> +3.0096957e+11 </wgt>
<wgt id='1479'> +2.9928043e+11 </wgt>
<wgt id='1480'> +2.9996188e+11 </wgt>
<wgt id='1481'> +2.9917615e+11 </wgt>
<wgt id='1482'> +3.0036033e+11 </wgt>
<wgt id='1483'> +2.9975313e+11 </wgt>
<wgt id='1484'> +2.9957775e+11 </wgt>
<wgt id='1485'> +2.9988932e+11 </wgt>
<wgt id='1486'> +2.9917508e+11 </wgt>
<wgt id='1487'> +2.9995687e+11 </wgt>
<wgt id='1488'> +2.9933360e+11 </wgt>
<wgt id='1489'> +2.9931291e+11 </wgt>
<wgt id='1490'> +3.0067457e+11 </wgt>
<wgt id='1491'> +3.0465186e+11 </wgt>
<wgt id='1492'> +2.9690823e+11 </wgt>
<wgt id='1493'> +2.9607605e+11 </wgt>
<wgt id='1494'> +3.1098123e+11 </wgt>
<wgt id='1495'> +2.9892115e+11 </wgt>
<wgt id='1496'> +3.0049414e+11 </wgt>
<wgt id='1497'> +2.9988258e+11 </wgt>
<wgt id='1498'> +2.9940264e+11 </wgt>
<wgt id='1499'> +3.0168080e+11 </wgt>
<wgt id='1500'> +2.9858644e+11 </wgt>
<wgt id='1501'> +3.0007819e+11 </wgt>
<wgt id='1502'> +2.9862703e+11 </wgt>
<wgt id='1503'> +2.9590618e+11 </wgt>
<wgt id='1504'> +3.0382272e+11 </wgt>
<wgt id='1505'> +3.0049240e+11 </wgt>
<wgt id='1506'> +2.9888444e+11 </wgt>
<wgt id='1507'> +3.0219869e+11 </wgt>
<wgt id='1508'> +2.9621400e+11 </wgt>
<wgt id='1509'> +3.0038028e+11 </wgt>
<wgt id='1510'> +2.9666445e+11 </wgt>
<wgt id='1511'> +3.0087536e+11 </wgt>
<wgt id='1512'> +2.9931396e+11 </wgt>
<wgt id='1513'> +2.9955263e+11 </wgt>
<wgt id='1514'> +2.9982731e+11 </wgt>
<wgt id='1515'> +3.0287181e+11 </wgt>
<wgt id='1516'> +2.9962122e+11 </wgt>
<wgt id='1517'> +2.9921935e+11 </wgt>
<wgt id='1518'> +3.0022223e+11 </wgt>
<wgt id='1519'> +2.9783028e+11 </wgt>
<wgt id='1520'> +3.0099196e+11 </wgt>
<wgt id='1521'> +2.9863423e+11 </wgt>
<wgt id='1522'> +3.0028020e+11 </wgt>
<wgt id='1523'> +3.0090764e+11 </wgt>
<wgt id='1524'> +3.0123483e+11 </wgt>
<wgt id='1525'> +3.0059502e+11 </wgt>
<wgt id='1526'> +3.0088841e+11 </wgt>
<wgt id='1527'> +2.9967976e+11 </wgt>
<wgt id='1528'> +2.9895398e+11 </wgt>
<wgt id='1529'> +3.0002138e+11 </wgt>
<wgt id='1530'> +2.9587095e+11 </wgt>
<wgt id='1531'> +3.0049410e+11 </wgt>
<wgt id='1532'> +2.9911772e+11 </wgt>
<wgt id='1533'> +2.9537433e+11 </wgt>
<wgt id='1534'> +2.9894448e+11 </wgt>
<wgt id='1535'> +3.0341917e+11 </wgt>
<wgt id='1536'> +2.9749401e+11 </wgt>
<wgt id='1537'> +3.0135493e+11 </wgt>
<wgt id='1538'> +2.9690627e+11 </wgt>
<wgt id='1539'> +3.0589525e+11 </wgt>
<wgt id='1540'> +3.0090594e+11 </wgt>
<wgt id='1541'> +3.0169904e+11 </wgt>
<wgt id='1542'> +3.0055164e+11 </wgt>
<wgt id='1543'> +3.0201790e+11 </wgt>
<wgt id='1544'> +2.9875399e+11 </wgt>
<wgt id='1545'> +2.9847142e+11 </wgt>
<wgt id='1546'> +2.9662887e+11 </wgt>
<wgt id='1547'> +3.0280715e+11 </wgt>
<wgt id='1548'> +2.9900384e+11 </wgt>
<wgt id='1549'> +2.9701418e+11 </wgt>
<wgt id='1550'> +3.0205965e+11 </wgt>
<wgt id='1551'> +3.0110226e+11 </wgt>
<wgt id='1552'> +3.0035084e+11 </wgt>
<wgt id='1553'> +3.0394716e+11 </wgt>
<wgt id='1554'> +3.0054890e+11 </wgt>
<wgt id='1555'> +3.0134648e+11 </wgt>
<wgt id='1556'> +3.0267058e+11 </wgt>
<wgt id='1557'> +2.9995489e+11 </wgt>
<wgt id='1558'> +3.0076839e+11 </wgt>
<wgt id='1559'> +2.9800828e+11 </wgt>
<wgt id='1560'> +2.9926350e+11 </wgt>
<wgt id='1561'> +2.9786923e+11 </wgt>
<wgt id='1562'> +2.9895198e+11 </wgt>
<wgt id='1563'> +3.0068077e+11 </wgt>
<wgt id='1564'> +3.0013966e+11 </wgt>
<wgt id='1565'> +3.0298265e+11 </wgt>
<wgt id='1566'> +3.0053620e+11 </wgt>
<wgt id='1567'> +3.0288691e+11 </wgt>
<wgt id='1568'> +3.0037551e+11 </wgt>
<wgt id='1569'> +2.9999237e+11 </wgt>
<wgt id='1570'> +3.0631270e+11 </wgt>
<wgt id='1571'> +3.0048481e+11 </wgt>
<wgt id='1572'> +3.0244873e+11 </wgt>
<wgt id='1573'> +3.0418951e+11 </wgt>
<wgt id='1574'> +2.5790763e+11 </wgt>
<wgt id='1575'> +2.5797623e+11 </wgt>
<wgt id='1576'> +2.5783940e+11 </wgt>
<wgt id='1577'> +2.5792569e+11 </wgt>
<wgt id='1578'> +2.5850237e+11 </wgt>
<wgt id='1579'> +2.5872790e+11 </wgt>
<wgt id='1580'> +2.5849552e+11 </wgt>
<wgt id='1581'> +2.5737963e+11 </wgt>
<wgt id='1582'> +2.5709880e+11 </wgt>
<wgt id='1583'> +2.5745430e+11 </wgt>
<wgt id='1584'> +2.5847643e+11 </wgt>
<wgt id='1585'> +2.5813425e+11 </wgt>
<wgt id='1586'> +2.5702996e+11 </wgt>
<wgt id='1587'> +2.5721491e+11 </wgt>
<wgt id='1588'> +2.5675248e+11 </wgt>
<wgt id='1589'> +2.5761107e+11 </wgt>
<wgt id='1590'> +2.5774619e+11 </wgt>
<wgt id='1591'> +2.5798419e+11 </wgt>
<wgt id='1592'> +2.5691062e+11 </wgt>
<wgt id='1593'> +2.5689052e+11 </wgt>
<wgt id='1594'> +2.5888545e+11 </wgt>
<wgt id='1595'> +2.5546970e+11 </wgt>
<wgt id='1596'> +2.6194214e+11 </wgt>
<wgt id='1597'> +2.5970321e+11 </wgt>
<wgt id='1598'> +2.5986154e+11 </wgt>
<wgt id='1599'> +2.5497798e+11 </wgt>
<wgt id='1600'> +2.6266607e+11 </wgt>
<wgt id='1601'> +2.6006302e+11 </wgt>
<wgt id='1602'> +2.5795402e+11 </wgt>
<wgt id='1603'> +2.7071321e+11 </wgt>
<wgt id='1604'> +2.5804665e+11 </wgt>
</rwgt>
</event>
<event>
 9      1 +2.8343000e+11 1.39999800e+03 7.81738600e-03 7.88881300e-02
       21 -1    0    0  504  503 +0.0000000000e+00 +0.0000000000e+00 +1.9460967532e+03 1.9460967532e+03 0.0000000000e+00 0.0000e+00 -1.0000e+00
       21 -1    0    0  503  504 -0.0000000000e+00 -0.0000000000e+00 -2.5178548435e+02 2.5178548435e+02 0.0000000000e+00 0.0000e+00 -1.0000e+00
       45  2    1    2    0    0 +0.0000000000e+00 +0.0000000000e+00 +1.6943112688e+03 2.1978822375e+03 1.3999984480e+03 0.0000e+00 0.0000e+00
       25  2    3    3    0    0 -8.7917051206e+01 +6.6925288196e+02 +6.1484247893e+02 9.2156660125e+02 1.2499959496e+02 0.0000e+00 0.0000e+00
       35  2    3    3    0    0 +8.7917051206e+01 -6.6925288196e+02 +1.0794687899e+03 1.2763156363e+03 8.9999484289e+01 0.0000e+00 0.0000e+00
        5  1    5    5  501    0 +2.2232650267e+01 -1.2892765926e+02 +2.8064009745e+02 3.0966635942e+02 4.2140000000e+00 0.0000e+00 1.0000e+00
       -5  1    5    5    0  501 +6.5684400938e+01 -5.4032522270e+02 +7.9882869245e+02 9.6664927687e+02 4.2140000000e+00 0.0000e+00 1.0000e+00
        5  1    4    4  502    0 -8.9421262131e+01 +6.5916904842e+02 +6.2003470321e+02 9.0937384364e+02 4.2140000000e+00 0.0000e+00 -1.0000e+00
       -5  1    4    4    0  502 +1.5042109251e+00 +1.0083833538e+01 -5.1922242729e+00 1.2192757614e+01 4.2140000000e+00 0.0000e+00 -1.0000e+00
<mgrwt>
<rscale>  0 0.13999984E+04</rscale>
<asrwt>0</asrwt>
<pdfrwt beam="1">  1       21 0.29939949E+00 0.13999984E+04</pdfrwt>
<pdfrwt beam="2">  1       21 0.38736230E-01 0.13999984E+04</pdfrwt>
<totfact> 0.12778405E+02</totfact>
</mgrwt>
<rwgt>
<wgt id='1001'> +2.8343000e+11 </wgt>
<wgt id='1002'> +2.8520532e+11 </wgt>
<wgt id='1003'> +2.8519639e+11 </wgt>
<wgt id='1004'> +3.2365164e+11 </wgt>
<wgt id='1005'> +2.8343000e+11 </wgt>
<wgt id='1006'> +2.8343000e+11 </wgt>
<wgt id='1007'> +2.8520532e+11 </wgt>
<wgt id='1008'> +2.8519639e+11 </wgt>
<wgt id='1009'> +3.2365164e+11 </wgt>
<wgt id='1010'> +2.8343000e+11 </wgt>
<wgt id='1011'> +2.8343000e+11 </wgt>
<wgt id='1012'> +2.8520532e+11 </wgt>
<wgt id='1013'> +2.8519639e+11 </wgt>
<wgt id='1014'> +3.2365164e+11 </wgt>
<wgt id='1015'> +2.8343000e+11 </wgt>
<wgt id='1016'> +2.5179097e+11 </wgt>
<wgt id='1017'> +2.5327599e+11 </wgt>
<wgt id='1018'> +2.5326852e+11 </wgt>
<wgt id='1019'> +2.8519639e+11 </wgt>
<wgt id='1020'> +2.5179097e+11 </wgt>
<wgt id='1021'> +2.5179097e+11 </wgt>
<wgt id='1022'> +2.5327599e+11 </wgt>
<wgt id='1023'> +2.5326852e+11 </wgt>
<wgt id='1024'> +2.8519639e+11 </wgt>
<wgt id='1025'> +2.5179097e+11 </wgt>
<wgt id='1026'> +2.5179097e+11 </wgt>
<wgt id='1027'> +2.5327599e+11 </wgt>
<wgt id='1028'> +2.5326852e+11 </wgt>
<wgt id='1029'> +2.8519639e+11 </wgt>
<wgt id='1030'> +2.5179097e+11 </wgt>
<wgt id='1031'> +3.2151297e+11 </wgt>
<wgt id='1032'> +3.2366246e+11 </wgt>
<wgt id='1033'> +3.2365164e+11 </wgt>
<wgt id='1034'> +3.7042744e+11 </wgt>
<wgt id='1035'> +3.2151297e+11 </wgt>
<wgt id='1036'> +3.2151297e+11 </wgt>
<wgt id='1037'> +3.2366246e+11 </wgt>
<wgt id='1038'> +3.2365164e+11 </wgt>
<wgt id='1039'> +3.7042744e+11 </wgt>
<wgt id='1040'> +3.2151297e+11 </wgt>
<wgt id='1041'> +3.2151297e+11 </wgt>
<wgt id='1042'> +3.2366246e+11 </wgt>
<wgt id='1043'> +3.2365164e+11 </wgt>
<wgt id='1044'> +3.7042744e+11 </wgt>
<wgt id='1045'> +3.2151297e+11 </wgt>
<wgt id='1046'> +2.8343000e+11 </wgt>
<wgt id='1047'> +2.8343000e+11 </wgt>
<wgt id='1048'> +2.8343000e+11 </wgt>
<wgt id='1049'> +2.8339648e+11 </wgt>
<wgt id='1050'> +2.8249909e+11 </wgt>
<wgt id='1051'> +2.8344289e+11 </wgt>
<wgt id='1052'> +2.8356705e+11 </wgt>
<wgt id='1053'> +2.8181621e+11 </wgt>
<wgt id='1054'> +2.8536837e+11 </wgt>
<wgt id='1055'> +2.8201145e+11 </wgt>
<wgt id='1056'> +2.8168036e+11 </wgt>
<wgt id='1057'> +2.8248544e+11 </wgt>
<wgt id='1058'> +2.8339841e+11 </wgt>
<wgt id='1059'> +2.8559402e+11 </wgt>
<wgt id='1060'> +2.8288250e+11 </wgt>
<wgt id='1061'> +2.8464792e+11 </wgt>
<wgt id='1062'> +2.8509510e+11 </wgt>
<wgt id='1063'> +2.8466150e+11 </wgt>
<wgt id='1064'> +2.8501750e+11 </wgt>
<wgt id='1065'> +2.8536890e+11 </wgt>
<wgt id='1066'> +2.8239005e+11 </wgt>
<wgt id='1067'> +2.8185611e+11 </wgt>
<wgt id='1068'> +2.8416217e+11 </wgt>
<wgt id='1069'> +2.8250146e+11 </wgt>
<wgt id='1070'> +2.8275962e+11 </wgt>
<wgt id='1071'> +2.8491774e+11 </wgt>
<wgt id='1072'> +2.8155196e+11 </wgt>
<wgt id='1073'> +2.8337721e+11 </wgt>
<wgt id='1074'> +2.8321740e+11 </wgt>
<wgt id='1075'> +2.8140358e+11 </wgt>
<wgt id='1076'> +2.8401324e+11 </wgt>
<wgt id='1077'> +2.8027380e+11 </wgt>
<wgt id='1078'> +2.8189850e+11 </wgt>
<wgt id='1079'> +2.8287069e+11 </wgt>
<wgt id='1080'> +2.8307302e+11 </wgt>
<wgt id='1081'> +2.8296180e+11 </wgt>
<wgt id='1082'> +2.8345510e+11 </wgt>
<wgt id='1083'> +2.8414488e+11 </wgt>
<wgt id='1084'> +2.8385226e+11 </wgt>
<wgt id='1085'> +2.8196400e+11 </wgt>
<wgt id='1086'> +2.8555260e+11 </wgt>
<wgt id='1087'> +2.8416224e+11 </wgt>
<wgt id='1088'> +2.8291233e+11 </wgt>
<wgt id='1089'> +2.8268487e+11 </wgt>
<wgt id='1090'> +2.8428436e+11 </wgt>
<wgt id='1091'> +2.8388849e+11 </wgt>
<wgt id='1092'> +2.8326054e+11 </wgt>
<wgt id='1093'> +2.8313535e+11 </wgt>
<wgt id='1094'> +2.8160683e+11 </wgt>
<wgt id='1095'> +2.8409404e+11 </wgt>
<wgt id='1096'> +2.8360617e+11 </wgt>
<wgt id='1097'> +2.8241833e+11 </wgt>
<wgt id='1098'> +2.8313815e+11 </wgt>
<wgt id='1099'> +2.8358023e+11 </wgt>
<wgt id='1100'> +2.8372485e+11 </wgt>
<wgt id='1101'> +2.8348909e+11 </wgt>
<wgt id='1102'> +2.8332921e+11 </wgt>
<wgt id='1103'> +2.8178035e+11 </wgt>
<wgt id='1104'> +2.8382855e+11 </wgt>
<wgt id='1105'> +2.8356297e+11 </wgt>
<wgt id='1106'> +2.8399996e+11 </wgt>
<wgt id='1107'> +2.8404020e+11 </wgt>
<wgt id='1108'> +2.8307372e+11 </wgt>
<wgt id='1109'> +2.8364499e+11 </wgt>
<wgt id='1110'> +2.8338658e+11 </wgt>
<wgt id='1111'> +2.8447173e+11 </wgt>
<wgt id='1112'> +2.8299855e+11 </wgt>
<wgt id='1113'> +2.8374922e+11 </wgt>
<wgt id='1114'> +2.8309375e+11 </wgt>
<wgt id='1115'> +2.8221899e+11 </wgt>
<wgt id='1116'> +2.8472215e+11 </wgt>
<wgt id='1117'> +2.8324490e+11 </wgt>
<wgt id='1118'> +2.8422512e+11 </wgt>
<wgt id='1119'> +2.8250150e+11 </wgt>
<wgt id='1120'> +2.8236178e+11 </wgt>
<wgt id='1121'> +2.8333371e+11 </wgt>
<wgt id='1122'> +2.8259216e+11 </wgt>
<wgt id='1123'> +2.8335405e+11 </wgt>
<wgt id='1124'> +2.8377111e+11 </wgt>
<wgt id='1125'> +2.8362050e+11 </wgt>
<wgt id='1126'> +2.8362016e+11 </wgt>
<wgt id='1127'> +2.8338439e+11 </wgt>
<wgt id='1128'> +2.8324443e+11 </wgt>
<wgt id='1129'> +2.8301030e+11 </wgt>
<wgt id='1130'> +2.8346901e+11 </wgt>
<wgt id='1131'> +2.8450591e+11 </wgt>
<wgt id='1132'> +2.8316949e+11 </wgt>
<wgt id='1133'> +2.8372031e+11 </wgt>
<wgt id='1134'> +2.8329522e+11 </wgt>
<wgt id='1135'> +2.8351808e+11 </wgt>
<wgt id='1136'> +2.8313483e+11 </wgt>
<wgt id='1137'> +2.8299327e+11 </wgt>
<wgt id='1138'> +2.8363989e+11 </wgt>
<wgt id='1139'> +2.8376740e+11 </wgt>
<wgt id='1140'> +2.8386651e+11 </wgt>
<wgt id='1141'> +2.8294550e+11 </wgt>
<wgt id='1142'> +2.8345973e+11 </wgt>
<wgt id='1143'> +2.8379419e+11 </wgt>
<wgt id='1144'> +2.8333755e+11 </wgt>
<wgt id='1145'> +2.8369593e+11 </wgt>
<wgt id='1146'> +2.8366246e+11 </wgt>
<wgt id='1147'> +2.8353695e+11 </wgt>
<wgt id='1148'> +2.8343000e+11 </wgt>
<wgt id='1149'> +2.8343000e+11 </wgt>
<wgt id='1150'> +2.8176167e+11 </wgt>
<wgt id='1151'> +2.7887876e+11 </wgt>
<wgt id='1152'> +2.8231930e+11 </wgt>
<wgt id='1153'> +2.8536540e+11 </wgt>
<wgt id='1154'> +2.7026598e+11 </wgt>
<wgt id='1155'> +3.0111314e+11 </wgt>
<wgt id='1156'> +2.8700722e+11 </wgt>
<wgt id='1157'> +2.8199741e+11 </wgt>
<wgt id='1158'> +2.8085717e+11 </wgt>
<wgt id='1159'> +2.9151978e+11 </wgt>
<wgt id='1160'> +2.6930356e+11 </wgt>
<wgt id='1161'> +3.0005906e+11 </wgt>
<wgt id='1162'> +2.8173085e+11 </wgt>
<wgt id='1163'> +2.8723014e+11 </wgt>
<wgt id='1164'> +2.6663816e+11 </wgt>
<wgt id='1165'> +2.7608289e+11 </wgt>
<wgt id='1166'> +2.8213745e+11 </wgt>
<wgt id='1167'> +2.7984457e+11 </wgt>
<wgt id='1168'> +2.6592575e+11 </wgt>
<wgt id='1169'> +2.7063701e+11 </wgt>
<wgt id='1170'> +2.8270854e+11 </wgt>
<wgt id='1171'> +2.7267559e+11 </wgt>
<wgt id='1172'> +2.6577898e+11 </wgt>
<wgt id='1173'> +2.8915971e+11 </wgt>
<wgt id='1174'> +2.8152303e+11 </wgt>
<wgt id='1175'> +2.7707041e+11 </wgt>
<wgt id='1176'> +2.8971587e+11 </wgt>
<wgt id='1177'> +2.9046204e+11 </wgt>
<wgt id='1178'> +2.8353271e+11 </wgt>
<wgt id='1179'> +2.9708111e+11 </wgt>
<wgt id='1180'> +2.8876183e+11 </wgt>
<wgt id='1181'> +2.7915325e+11 </wgt>
<wgt id='1182'> +2.8308527e+11 </wgt>
<wgt id='1183'> +2.9318233e+11 </wgt>
<wgt id='1184'> +2.6854912e+11 </wgt>
<wgt id='1185'> +2.9082797e+11 </wgt>
<wgt id='1186'> +2.7484641e+11 </wgt>
<wgt id='1187'> +2.9680028e+11 </wgt>
<wgt id='1188'> +2.9707089e+11 </wgt>
<wgt id='1189'> +2.9180016e+11 </wgt>
<wgt id='1190'> +2.8469080e+11 </wgt>
<wgt id='1191'> +3.0293165e+11 </wgt>
<wgt id='1192'> +2.8696646e+11 </wgt>
<wgt id='1193'> +2.8719350e+11 </wgt>
<wgt id='1194'> +2.7107652e+11 </wgt>
<wgt id='1195'> +2.9298259e+11 </wgt>
<wgt id='1196'> +2.7999432e+11 </wgt>
<wgt id='1197'> +2.9042855e+11 </wgt>
<wgt id='1198'> +2.7679421e+11 </wgt>
<wgt id='1199'> +2.8610346e+11 </wgt>
<wgt id='1200'> +2.8697976e+11 </wgt>
<wgt id='1201'> +2.9225531e+11 </wgt>
<wgt id='1202'> +2.7817570e+11 </wgt>
<wgt id='1203'> +2.8898680e+11 </wgt>
<wgt id='1204'> +2.7256973e+11 </wgt>
<wgt id='1205'> +2.9351454e+11 </wgt>
<wgt id='1206'> +2.7628734e+11 </wgt>
<wgt id='1207'> +2.9819313e+11 </wgt>
<wgt id='1208'> +2.8040578e+11 </wgt>
<wgt id='1209'> +2.7994775e+11 </wgt>
<wgt id='1210'> +2.8372991e+11 </wgt>
<wgt id='1211'> +2.8656848e+11 </wgt>
<wgt id='1212'> +2.7245170e+11 </wgt>
<wgt id='1213'> +2.7844239e+11 </wgt>
<wgt id='1214'> +2.7895269e+11 </wgt>
<wgt id='1215'> +2.9327483e+11 </wgt>
<wgt id='1216'> +2.7700030e+11 </wgt>
<wgt id='1217'> +2.8578671e+11 </wgt>
<wgt id='1218'> +2.7801438e+11 </wgt>
<wgt id='1219'> +2.8479557e+11 </wgt>
<wgt id='1220'> +2.7609789e+11 </wgt>
<wgt id='1221'> +2.6719806e+11 </wgt>
<wgt id='1222'> +2.7794158e+11 </wgt>
<wgt id='1223'> +2.7524900e+11 </wgt>
<wgt id='1224'> +2.8034784e+11 </wgt>
<wgt id='1225'> +2.7944703e+11 </wgt>
<wgt id='1226'> +2.8351413e+11 </wgt>
<wgt id='1227'> +2.6676437e+11 </wgt>
<wgt id='1228'> +2.7233918e+11 </wgt>
<wgt id='1229'> +2.9472954e+11 </wgt>
<wgt id='1230'> +2.8513628e+11 </wgt>
<wgt id='1231'> +2.7608289e+11 </wgt>
<wgt id='1232'> +2.9108026e+11 </wgt>
<wgt id='1233'> +2.8035012e+11 </wgt>
<wgt id='1234'> +2.8690801e+11 </wgt>
<wgt id='1235'> +3.0646793e+11 </wgt>
<wgt id='1236'> +2.8895153e+11 </wgt>
<wgt id='1237'> +2.9563525e+11 </wgt>
<wgt id='1238'> +3.0795628e+11 </wgt>
<wgt id='1239'> +2.9429036e+11 </wgt>
<wgt id='1240'> +2.8057624e+11 </wgt>
<wgt id='1241'> +2.8616199e+11 </wgt>
<wgt id='1242'> +2.8368378e+11 </wgt>
<wgt id='1243'> +2.7599832e+11 </wgt>
<wgt id='1244'> +2.8926027e+11 </wgt>
<wgt id='1245'> +2.6928618e+11 </wgt>
<wgt id='1246'> +3.0274787e+11 </wgt>
<wgt id='1247'> +2.7876106e+11 </wgt>
<wgt id='1248'> +2.7576492e+11 </wgt>
<wgt id='1249'> +2.7570970e+11 </wgt>
<wgt id='1250'> +2.9820396e+11 </wgt>
<wgt id='1251'> +3.1157514e+11 </wgt>
<wgt id='1252'> +2.8709172e+11 </wgt>
<wgt id='1253'> +3.1688231e+11 </wgt>
<wgt id='1254'> +2.9350249e+11 </wgt>
<wgt id='1255'> +3.1957026e+11 </wgt>
<wgt id='1256'> +3.1379643e+11 </wgt>
<wgt id='1257'> +2.8810039e+11 </wgt>
<wgt id='1258'> +2.9551909e+11 </wgt>
<wgt id='1259'> +3.3100184e+11 </wgt>
<wgt id='1260'> +3.5380136e+11 </wgt>
<wgt id='1261'> +3.3889516e+11 </wgt>
<wgt id='1262'> +3.0633886e+11 </wgt>
<wgt id='1263'> +3.1241175e+11 </wgt>
<wgt id='1264'> +3.0470076e+11 </wgt>
<wgt id='1265'> +2.8381458e+11 </wgt>
<wgt id='1266'> +3.0664023e+11 </wgt>
<wgt id='1267'> +4.0522260e+11 </wgt>
<wgt id='1268'> +2.8448038e+11 </wgt>
<wgt id='1269'> +2.7981214e+11 </wgt>
<wgt id='1270'> +3.2811488e+11 </wgt>
<wgt id='1271'> +2.4519357e+11 </wgt>
<wgt id='1272'> +3.0368959e+11 </wgt>
<wgt id='1273'> +2.9507491e+11 </wgt>
<wgt id='1274'> +2.9554106e+11 </wgt>
<wgt id='1275'> +2.8854652e+11 </wgt>
<wgt id='1276'> +3.2198910e+11 </wgt>
<wgt id='1277'> +3.2557988e+11 </wgt>
<wgt id='1278'> +3.1501466e+11 </wgt>
<wgt id='1279'> +2.7517666e+11 </wgt>
<wgt id='1280'> +3.0806947e+11 </wgt>
<wgt id='1281'> +2.8478017e+11 </wgt>
<wgt id='1282'> +2.9114415e+11 </wgt>
<wgt id='1283'> +3.3613000e+11 </wgt>
<wgt id='1284'> +2.9421493e+11 </wgt>
<wgt id='1285'> +2.9535599e+11 </wgt>
<wgt id='1286'> +3.6452691e+11 </wgt>
<wgt id='1287'> +3.6752924e+11 </wgt>
<wgt id='1288'> +3.8814655e+11 </wgt>
<wgt id='1289'> +3.3490208e+11 </wgt>
<wgt id='1290'> +3.1912721e+11 </wgt>
<wgt id='1291'> +2.8469435e+11 </wgt>
<wgt id='1292'> +3.1526048e+11 </wgt>
<wgt id='1293'> +3.0536758e+11 </wgt>
<wgt id='1294'> +3.6973247e+11 </wgt>
<wgt id='1295'> +3.2019943e+11 </wgt>
<wgt id='1296'> +3.7443302e+11 </wgt>
<wgt id='1297'> +2.7821715e+11 </wgt>
<wgt id='1298'> +2.9520503e+11 </wgt>
<wgt id='1299'> +3.1091311e+11 </wgt>
<wgt id='1300'> +2.5425443e+11 </wgt>
<wgt id='1301'> +2.7263178e+11 </wgt>
<wgt id='1302'> +2.7190067e+11 </wgt>
<wgt id='1303'> +3.1577151e+11 </wgt>
<wgt id='1304'> +3.6545384e+11 </wgt>
<wgt id='1305'> +2.9464867e+11 </wgt>
<wgt id='1306'> +3.0675686e+11 </wgt>
<wgt id='1307'> +2.6849581e+11 </wgt>
<wgt id='1308'> +3.4578169e+11 </wgt>
<wgt id='1309'> +3.1713768e+11 </wgt>
<wgt id='1310'> +3.0999515e+11 </wgt>
<wgt id='1311'> +2.8664208e+11 </wgt>
<wgt id='1312'> +3.5932197e+11 </wgt>
<wgt id='1313'> +3.2716289e+11 </wgt>
<wgt id='1314'> +2.7224659e+11 </wgt>
<wgt id='1315'> +2.8023650e+11 </wgt>
<wgt id='1316'> +3.0080723e+11 </wgt>
<wgt id='1317'> +3.5613274e+11 </wgt>
<wgt id='1318'> +2.9021230e+11 </wgt>
<wgt id='1319'> +3.0630217e+11 </wgt>
<wgt id='1320'> +3.3191845e+11 </wgt>
<wgt id='1321'> +3.2123659e+11 </wgt>
<wgt id='1322'> +3.3171088e+11 </wgt>
<wgt id='1323'> +2.6405500e+11 </wgt>
<wgt id='1324'> +3.3011821e+11 </wgt>
<wgt id='1325'> +3.2098213e+11 </wgt>
<wgt id='1326'> +3.2451711e+11 </wgt>
<wgt id='1327'> +3.3793519e+11 </wgt>
<wgt id='1328'> +3.2326513e+11 </wgt>
<wgt id='1329'> +2.8987002e+11 </wgt>
<wgt id='1330'> +2.7379195e+11 </wgt>
<wgt id='1331'> +3.3411409e+11 </wgt>
<wgt id='1332'> +3.2333757e+11 </wgt>
<wgt id='1333'> +3.0515544e+11 </wgt>
<wgt id='1334'> +3.4672908e+11 </wgt>
<wgt id='1335'> +2.7291447e+11 </wgt>
<wgt id='1336'> +3.5631133e+11 </wgt>
<wgt id='1337'> +3.1496677e+11 </wgt>
<wgt id='1338'> +2.7898261e+11 </wgt>
<wgt id='1339'> +2.9491615e+11 </wgt>
<wgt id='1340'> +3.4746344e+11 </wgt>
<wgt id='1341'> +3.8913312e+11 </wgt>
<wgt id='1342'> +2.8154015e+11 </wgt>
<wgt id='1343'> +3.1414109e+11 </wgt>
<wgt id='1344'> +3.3840242e+11 </wgt>
<wgt id='1345'> +2.2535618e+11 </wgt>
<wgt id='1346'> +3.0825114e+11 </wgt>
<wgt id='1347'> +3.0886185e+11 </wgt>
<wgt id='1348'> +2.8407858e+11 </wgt>
<wgt id='1349'> +2.9376365e+11 </wgt>
<wgt id='1350'> +3.5267288e+11 </wgt>
<wgt id='1351'> +2.8656563e+11 </wgt>
<wgt id='1352'> +3.1381458e+11 </wgt>
<wgt id='1353'> +3.1629515e+11 </wgt>
<wgt id='1354'> +3.2077458e+11 </wgt>
<wgt id='1355'> +2.8471601e+11 </wgt>
<wgt id='1356'> +2.8778247e+11 </wgt>
<wgt id='1357'> +2.8867457e+11 </wgt>
<wgt id='1358'> +2.8123727e+11 </wgt>
<wgt id='1359'> +2.8208657e+11 </wgt>
<wgt id='1360'> +2.7836245e+11 </wgt>
<wgt id='1361'> +2.8351972e+11 </wgt>
<wgt id='1362'> +2.9340650e+11 </wgt>
<wgt id='1363'> +2.8292215e+11 </wgt>
<wgt id='1364'> +3.0346755e+11 </wgt>
<wgt id='1365'> +2.8142133e+11 </wgt>
<wgt id='1366'> +2.8418901e+11 </wgt>
<wgt id='1367'> +2.7769856e+11 </wgt>
<wgt id='1368'> +2.9180086e+11 </wgt>
<wgt id='1369'> +2.8751723e+11 </wgt>
<wgt id='1370'> +2.7345988e+11 </wgt>
<wgt id='1371'> +2.7736800e+11 </wgt>
<wgt id='1372'> +2.7691202e+11 </wgt>
<wgt id='1373'> +2.9470594e+11 </wgt>
<wgt id='1374'> +2.8458940e+11 </wgt>
<wgt id='1375'> +2.8716765e+11 </wgt>
<wgt id='1376'> +2.8694292e+11 </wgt>
<wgt id='1377'> +2.8287554e+11 </wgt>
<wgt id='1378'> +2.9112142e+11 </wgt>
<wgt id='1379'> +2.8076149e+11 </wgt>
<wgt id='1380'> +2.8168117e+11 </wgt>
<wgt id='1381'> +2.8843280e+11 </wgt>
<wgt id='1382'> +2.7845390e+11 </wgt>
<wgt id='1383'> +2.8099956e+11 </wgt>
<wgt id='1384'> +2.7320685e+11 </wgt>
<wgt id='1385'> +2.7953629e+11 </wgt>
<wgt id='1386'> +2.8065208e+11 </wgt>
<wgt id='1387'> +2.8690217e+11 </wgt>
<wgt id='1388'> +2.8341461e+11 </wgt>
<wgt id='1389'> +2.7759964e+11 </wgt>
<wgt id='1390'> +2.8790613e+11 </wgt>
<wgt id='1391'> +2.9349880e+11 </wgt>
<wgt id='1392'> +2.7323047e+11 </wgt>
<wgt id='1393'> +2.9004319e+11 </wgt>
<wgt id='1394'> +2.8973529e+11 </wgt>
<wgt id='1395'> +2.7390494e+11 </wgt>
<wgt id='1396'> +2.8439088e+11 </wgt>
<wgt id='1397'> +2.8259654e+11 </wgt>
<wgt id='1398'> +2.9849566e+11 </wgt>
<wgt id='1399'> +2.8005655e+11 </wgt>
<wgt id='1400'> +2.7792761e+11 </wgt>
<wgt id='1401'> +2.7947288e+11 </wgt>
<wgt id='1402'> +2.8664505e+11 </wgt>
<wgt id='1403'> +2.9965861e+11 </wgt>
<wgt id='1404'> +2.8814168e+11 </wgt>
<wgt id='1405'> +3.0072557e+11 </wgt>
<wgt id='1406'> +2.9324047e+11 </wgt>
<wgt id='1407'> +2.9556139e+11 </wgt>
<wgt id='1408'> +3.0156803e+11 </wgt>
<wgt id='1409'> +2.7677143e+11 </wgt>
<wgt id='1410'> +2.8105439e+11 </wgt>
<wgt id='1411'> +2.8388996e+11 </wgt>
<wgt id='1412'> +2.9543311e+11 </wgt>
<wgt id='1413'> +2.9428192e+11 </wgt>
<wgt id='1414'> +2.8849061e+11 </wgt>
<wgt id='1415'> +2.7598496e+11 </wgt>
<wgt id='1416'> +2.8384923e+11 </wgt>
<wgt id='1417'> +2.7782804e+11 </wgt>
<wgt id='1418'> +2.8130704e+11 </wgt>
<wgt id='1419'> +2.8583070e+11 </wgt>
<wgt id='1420'> +2.6761730e+11 </wgt>
<wgt id='1421'> +2.9603645e+11 </wgt>
<wgt id='1422'> +2.7123551e+11 </wgt>
<wgt id='1423'> +2.8491655e+11 </wgt>
<wgt id='1424'> +2.7938739e+11 </wgt>
<wgt id='1425'> +2.8238031e+11 </wgt>
<wgt id='1426'> +2.9191583e+11 </wgt>
<wgt id='1427'> +2.7890679e+11 </wgt>
<wgt id='1428'> +2.7705789e+11 </wgt>
<wgt id='1429'> +2.8411123e+11 </wgt>
<wgt id='1430'> +2.7970851e+11 </wgt>
<wgt id='1431'> +2.8965165e+11 </wgt>
<wgt id='1432'> +2.7380881e+11 </wgt>
<wgt id='1433'> +2.7421091e+11 </wgt>
<wgt id='1434'> +2.8284141e+11 </wgt>
<wgt id='1435'> +2.8870738e+11 </wgt>
<wgt id='1436'> +2.8673008e+11 </wgt>
<wgt id='1437'> +2.8302701e+11 </wgt>
<wgt id='1438'> +2.8325543e+11 </wgt>
<wgt id='1439'> +2.9467694e+11 </wgt>
<wgt id='1440'> +2.8376262e+11 </wgt>
<wgt id='1441'> +2.8069381e+11 </wgt>
<wgt id='1442'> +2.8422787e+11 </wgt>
<wgt id='1443'> +2.7529472e+11 </wgt>
<wgt id='1444'> +2.9710946e+11 </wgt>
<wgt id='1445'> +2.7808087e+11 </wgt>
<wgt id='1446'> +3.0161501e+11 </wgt>
<wgt id='1447'> +2.9234758e+11 </wgt>
<wgt id='1448'> +2.8870872e+11 </wgt>
<wgt id='1449'> +2.8493609e+11 </wgt>
<wgt id='1450'> +2.8018697e+11 </wgt>
<wgt id='1451'> +2.7752079e+11 </wgt>
<wgt id='1452'> +2.9009983e+11 </wgt>
<wgt id='1453'> +2.9620346e+11 </wgt>
<wgt id='1454'> +2.7420748e+11 </wgt>
<wgt id='1455'> +2.8425679e+11 </wgt>
<wgt id='1456'> +2.8053999e+11 </wgt>
<wgt id='1457'> +2.8765816e+11 </wgt>
<wgt id='1458'> +2.9636737e+11 </wgt>
<wgt id='1459'> +3.1443638e+11 </wgt>
<wgt id='1460'> +3.0829567e+11 </wgt>
<wgt id='1461'> +3.8103967e+11 </wgt>
<wgt id='1462'> +3.1328437e+11 </wgt>
<wgt id='1463'> +3.1349329e+11 </wgt>
<wgt id='1464'> +3.1301640e+11 </wgt>
<wgt id='1465'> +3.1336155e+11 </wgt>
<wgt id='1466'> +3.1321387e+11 </wgt>
<wgt id='1467'> +3.1336180e+11 </wgt>
<wgt id='1468'> +3.1315731e+11 </wgt>
<wgt id='1469'> +3.1283835e+11 </wgt>
<wgt id='1470'> +3.1364655e+11 </wgt>
<wgt id='1471'> +3.1373041e+11 </wgt>
<wgt id='1472'> +3.1282493e+11 </wgt>
<wgt id='1473'> +3.1458493e+11 </wgt>
<wgt id='1474'> +3.1203506e+11 </wgt>
<wgt id='1475'> +3.1448360e+11 </wgt>
<wgt id='1476'> +3.1243458e+11 </wgt>
<wgt id='1477'> +3.1272381e+11 </wgt>
<wgt id='1478'> +3.1459441e+11 </wgt>
<wgt id='1479'> +3.1309239e+11 </wgt>
<wgt id='1480'> +3.1342732e+11 </wgt>
<wgt id='1481'> +3.1242695e+11 </wgt>
<wgt id='1482'> +3.1444914e+11 </wgt>
<wgt id='1483'> +3.1328544e+11 </wgt>
<wgt id='1484'> +3.1329363e+11 </wgt>
<wgt id='1485'> +3.1346138e+11 </wgt>
<wgt id='1486'> +3.1285721e+11 </wgt>
<wgt id='1487'> +3.1352613e+11 </wgt>
<wgt id='1488'> +3.1297467e+11 </wgt>
<wgt id='1489'> +3.1286984e+11 </wgt>
<wgt id='1490'> +3.1440908e+11 </wgt>
<wgt id='1491'> +3.1890761e+11 </wgt>
<wgt id='1492'> +3.1015334e+11 </wgt>
<wgt id='1493'> +3.0925907e+11 </wgt>
<wgt id='1494'> +3.2590500e+11 </wgt>
<wgt id='1495'> +3.1210571e+11 </wgt>
<wgt id='1496'> +3.1455237e+11 </wgt>
<wgt id='1497'> +3.1356972e+11 </wgt>
<wgt id='1498'> +3.1289626e+11 </wgt>
<wgt id='1499'> +3.1595136e+11 </wgt>
<wgt id='1500'> +3.1183288e+11 </wgt>
<wgt id='1501'> +3.1326212e+11 </wgt>
<wgt id='1502'> +3.1338247e+11 </wgt>
<wgt id='1503'> +3.0606828e+11 </wgt>
<wgt id='1504'> +3.2175635e+11 </wgt>
<wgt id='1505'> +3.1337147e+11 </wgt>
<wgt id='1506'> +3.1320504e+11 </wgt>
<wgt id='1507'> +3.2031383e+11 </wgt>
<wgt id='1508'> +2.9999711e+11 </wgt>
<wgt id='1509'> +3.1447378e+11 </wgt>
<wgt id='1510'> +3.0812451e+11 </wgt>
<wgt id='1511'> +3.1437888e+11 </wgt>
<wgt id='1512'> +3.1336522e+11 </wgt>
<wgt id='1513'> +3.1282111e+11 </wgt>
<wgt id='1514'> +3.1381010e+11 </wgt>
<wgt id='1515'> +3.2045248e+11 </wgt>
<wgt id='1516'> +3.1060362e+11 </wgt>
<wgt id='1517'> +3.1231111e+11 </wgt>
<wgt id='1518'> +3.1509354e+11 </wgt>
<wgt id='1519'> +3.1068530e+11 </wgt>
<wgt id='1520'> +3.1511790e+11 </wgt>
<wgt id='1521'> +3.1122503e+11 </wgt>
<wgt id='1522'> +3.1440239e+11 </wgt>
<wgt id='1523'> +3.1487918e+11 </wgt>
<wgt id='1524'> +3.1508782e+11 </wgt>
<wgt id='1525'> +3.1346387e+11 </wgt>
<wgt id='1526'> +3.1573414e+11 </wgt>
<wgt id='1527'> +3.1328437e+11 </wgt>
<wgt id='1528'> +3.0984042e+11 </wgt>
<wgt id='1529'> +3.1686027e+11 </wgt>
<wgt id='1530'> +3.0240245e+11 </wgt>
<wgt id='1531'> +3.2604186e+11 </wgt>
<wgt id='1532'> +3.2988117e+11 </wgt>
<wgt id='1533'> +3.1960024e+11 </wgt>
<wgt id='1534'> +3.2334727e+11 </wgt>
<wgt id='1535'> +3.3044150e+11 </wgt>
<wgt id='1536'> +3.1975078e+11 </wgt>
<wgt id='1537'> +3.3220432e+11 </wgt>
<wgt id='1538'> +3.2071965e+11 </wgt>
<wgt id='1539'> +3.3172676e+11 </wgt>
<wgt id='1540'> +3.3058932e+11 </wgt>
<wgt id='1541'> +3.2926064e+11 </wgt>
<wgt id='1542'> +3.2736315e+11 </wgt>
<wgt id='1543'> +3.2974831e+11 </wgt>
<wgt id='1544'> +3.2370083e+11 </wgt>
<wgt id='1545'> +3.2423189e+11 </wgt>
<wgt id='1546'> +3.2260422e+11 </wgt>
<wgt id='1547'> +3.2818622e+11 </wgt>
<wgt id='1548'> +3.2595200e+11 </wgt>
<wgt id='1549'> +3.2247815e+11 </wgt>
<wgt id='1550'> +3.2977991e+11 </wgt>
<wgt id='1551'> +3.2692384e+11 </wgt>
<wgt id='1552'> +3.2692268e+11 </wgt>
<wgt id='1553'> +3.3716145e+11 </wgt>
<wgt id='1554'> +3.2709443e+11 </wgt>
<wgt id='1555'> +3.2682304e+11 </wgt>
<wgt id='1556'> +3.2836846e+11 </wgt>
<wgt id='1557'> +3.2616840e+11 </wgt>
<wgt id='1558'> +3.2609136e+11 </wgt>
<wgt id='1559'> +3.2421971e+11 </wgt>
<wgt id='1560'> +3.2631026e+11 </wgt>
<wgt id='1561'> +3.2525498e+11 </wgt>
<wgt id='1562'> +3.2220163e+11 </wgt>
<wgt id='1563'> +3.2658343e+11 </wgt>
<wgt id='1564'> +3.2561860e+11 </wgt>
<wgt id='1565'> +3.3136806e+11 </wgt>
<wgt id='1566'> +3.2597599e+11 </wgt>
<wgt id='1567'> +3.2333575e+11 </wgt>
<wgt id='1568'> +3.2580193e+11 </wgt>
<wgt id='1569'> +3.2538667e+11 </wgt>
<wgt id='1570'> +3.3380751e+11 </wgt>
<wgt id='1571'> +3.2557757e+11 </wgt>
<wgt id='1572'> +3.2546520e+11 </wgt>
<wgt id='1573'> +3.3351141e+11 </wgt>
<wgt id='1574'> +2.3795561e+11 </wgt>
<wgt id='1575'> +2.3801455e+11 </wgt>
<wgt id='1576'> +2.3788585e+11 </wgt>
<wgt id='1577'> +2.3797282e+11 </wgt>
<wgt id='1578'> +2.3850398e+11 </wgt>
<wgt id='1579'> +2.3865745e+11 </wgt>
<wgt id='1580'> +2.3841772e+11 </wgt>
<wgt id='1581'> +2.3769028e+11 </wgt>
<wgt id='1582'> +2.3746856e+11 </wgt>
<wgt id='1583'> +2.3744808e+11 </wgt>
<wgt id='1584'> +2.3850929e+11 </wgt>
<wgt id='1585'> +2.3832793e+11 </wgt>
<wgt id='1586'> +2.3743792e+11 </wgt>
<wgt id='1587'> +2.3747018e+11 </wgt>
<wgt id='1588'> +2.3709826e+11 </wgt>
<wgt id='1589'> +2.3753055e+11 </wgt>
<wgt id='1590'> +2.3781339e+11 </wgt>
<wgt id='1591'> +2.3803489e+11 </wgt>
<wgt id='1592'> +2.3708127e+11 </wgt>
<wgt id='1593'> +2.3665952e+11 </wgt>
<wgt id='1594'> +2.3927441e+11 </wgt>
<wgt id='1595'> +2.3518466e+11 </wgt>
<wgt id='1596'> +2.4279435e+11 </wgt>
<wgt id='1597'> +2.3974709e+11 </wgt>
<wgt id='1598'> +2.3972972e+11 </wgt>
<wgt id='1599'> +2.3473272e+11 </wgt>
<wgt id='1600'> +2.4323245e+11 </wgt>
<wgt id='1601'> +2.4008498e+11 </wgt>
<wgt id='1602'> +2.3819383e+11 </wgt>
<wgt id='1603'> +2.5552719e+11 </wgt>
<wgt id='1604'> +2.3776272e+11 </wgt>
</rwgt>
</event>
<event>
 9      1 +2.8343000e+11 1.40000200e+03 7.81738600e-03 7.88881000e-02
       21 -1    0    0  504  503 +0.0000000000e+00 +0.0000000000e+00 +4.4117173637e+02 4.4117173637e+02 0.0000000000e+00 0.0000e+00 -1.0000e+00
       21 -1    0    0  503  504 -0.0000000000e+00 -0.0000000000e+00 -1.1106822296e+03 1.1106822296e+03 0.0000000000e+00 0.0000e+00 -1.0000e+00
       45  2    1    2    0    0 +5.6843418861e-14 +0.0000000000e+00 -6.6951049320e+02 1.5518539659e+03 1.4000022968e+03 0.0000e+00 0.0000e+00
       25  2    3    3    0    0 -3.3082000726e+02 -4.3172797371e+02 +1.3725612509e+02 5.7471356352e+02 1.2500206291e+02 0.0000e+00 0.0000e+00
       35  2    3    3    0    0 +3.3082000726e+02 +4.3172797371e+02 -8.0676661829e+02 9.7714040242e+02 9.0000384281e+01 0.0000e+00 0.0000e+00
        5  1    5    5  501    0 +1.2677688327e+02 +2.1815017575e+02 -4.2719877010e+02 4.9616370714e+02 4.2140000000e+00 0.0000e+00 -1.0000e+00
       -5  1    5    5    0  501 +2.0404312399e+02 +2.1357779796e+02 -3.7956784819e+02 4.8097669528e+02 4.2140000000e+00 0.0000e+00 -1.0000e+00
        5  1    4    4  502    0 -2.9768772578e+02 -4.1106696377e+02 +9.3816150976e+01 5.1615236002e+02 4.2140000000e+00 0.0000e+00 -1.0000e+00
       -5  1    4    4    0  502 -3.3132281486e+01 -2.0661009944e+01 +4.3439974109e+01 5.8561203497e+01 4.2140000000e+00 0.0000e+00 -1.0000e+00
<mgrwt>
<rscale>  0 0.14000023E+04</rscale>
<asrwt>0</asrwt>
<pdfrwt beam="1">  1       21 0.67872576E-01 0.14000023E+04</pdfrwt>
<pdfrwt beam="2">  1       21 0.17087419E+00 0.14000023E+04</pdfrwt>
<totfact> 0.29816730E+02</totfact>
</mgrwt>
<rwgt>
<wgt id='1001'> +2.8343000e+11 </wgt>
<wgt id='1002'> +2.9510813e+11 </wgt>
<wgt id='1003'> +2.9510048e+11 </wgt>
<wgt id='1004'> +3.3249522e+11 </wgt>
<wgt id='1005'> +2.8343000e+11 </wgt>
<wgt id='1006'> +2.8343000e+11 </wgt>
<wgt id='1007'> +2.9510813e+11 </wgt>
<wgt id='1008'> +2.9510048e+11 </wgt>
<wgt id='1009'> +3.3249522e+11 </wgt>
<wgt id='1010'> +2.8343000e+11 </wgt>
<wgt id='1011'> +2.8343000e+11 </wgt>
<wgt id='1012'> +2.9510813e+11 </wgt>
<wgt id='1013'> +2.9510048e+11 </wgt>
<wgt id='1014'> +3.3249522e+11 </wgt>
<wgt id='1015'> +2.8343000e+11 </wgt>
<wgt id='1016'> +2.5411896e+11 </wgt>
<wgt id='1017'> +2.6396077e+11 </wgt>
<wgt id='1018'> +2.6395435e+11 </wgt>
<wgt id='1019'> +2.9510048e+11 </wgt>
<wgt id='1020'> +2.5411896e+11 </wgt>
<wgt id='1021'> +2.5411896e+11 </wgt>
<wgt id='1022'> +2.6396077e+11 </wgt>
<wgt id='1023'> +2.6395435e+11 </wgt>
<wgt id='1024'> +2.9510048e+11 </wgt>
<wgt id='1025'> +2.5411896e+11 </wgt>
<wgt id='1026'> +2.5411896e+11 </wgt>
<wgt id='1027'> +2.6396077e+11 </wgt>
<wgt id='1028'> +2.6395435e+11 </wgt>
<wgt id='1029'> +2.9510048e+11 </wgt>
<wgt id='1030'> +2.5411896e+11 </wgt>
<wgt id='1031'> +3.1844385e+11 </wgt>
<wgt id='1032'> +3.3250443e+11 </wgt>
<wgt id='1033'> +3.3249522e+11 </wgt>
<wgt id='1034'> +3.7775204e+11 </wgt>
<wgt id='1035'> +3.1844385e+11 </wgt>
<wgt id='1036'> +3.1844385e+11 </wgt>
<wgt id='1037'> +3.3250443e+11 </wgt>
<wgt id='1038'> +3.3249522e+11 </wgt>
<wgt id='1039'> +3.7775204e+11 </wgt>
<wgt id='1040'> +3.1844385e+11 </wgt>
<wgt id='1041'> +3.1844385e+11 </wgt>
<wgt id='1042'> +3.3250443e+11 </wgt>
<wgt id='1043'> +3.3249522e+11 </wgt>
<wgt id='1044'> +3.7775204e+11 </wgt>
<wgt id='1045'> +3.1844385e+11 </wgt>
<wgt id='1046'> +2.8343000e+11 </wgt>
<wgt id='1047'> +2.8343000e+11 </wgt>
<wgt id='1048'> +2.8343000e+11 </wgt>
<wgt id='1049'> +2.8278335e+11 </wgt>
<wgt id='1050'> +2.8324353e+11 </wgt>
<wgt id='1051'> +2.8327871e+11 </wgt>
<wgt id='1052'> +2.8434686e+11 </wgt>
<wgt id='1053'> +2.8169561e+11 </wgt>
<wgt id='1054'> +2.8371802e+11 </wgt>
<wgt id='1055'> +2.8222824e+11 </wgt>
<wgt id='1056'> +2.8211541e+11 </wgt>
<wgt id='1057'> +2.8356655e+11 </wgt>
<wgt id='1058'> +2.8284022e+11 </wgt>
<wgt id='1059'> +2.8522095e+11 </wgt>
<wgt id='1060'> +2.8379308e+11 </wgt>
<wgt id='1061'> +2.8396301e+11 </wgt>
<wgt id='1062'> +2.8425786e+11 </wgt>
<wgt id='1063'> +2.8443372e+11 </wgt>
<wgt id='1064'> +2.8409933e+11 </wgt>
<wgt id='1065'> +2.8466986e+11 </wgt>
<wgt id='1066'> +2.8131420e+11 </wgt>
<wgt id='1067'> +2.8151197e+11 </wgt>
<wgt id='1068'> +2.8333030e+11 </wgt>
<wgt id='1069'> +2.8257824e+11 </wgt>
<wgt id='1070'> +2.8390314e+11 </wgt>
<wgt id='1071'> +2.8327959e+11 </wgt>
<wgt id='1072'> +2.8218377e+11 </wgt>
<wgt id='1073'> +2.8338164e+11 </wgt>
<wgt id='1074'> +2.8321587e+11 </wgt>
<wgt id='1075'> +2.8444489e+11 </wgt>
<wgt id='1076'> +2.8161724e+11 </wgt>
<wgt id='1077'> +2.8209116e+11 </wgt>
<wgt id='1078'> +2.8410918e+11 </wgt>
<wgt id='1079'> +2.8217607e+11 </wgt>
<wgt id='1080'> +2.8318268e+11 </wgt>
<wgt id='1081'> +2.8293992e+11 </wgt>
<wgt id='1082'> +2.8220238e+11 </wgt>
<wgt id='1083'> +2.8391365e+11 </wgt>
<wgt id='1084'> +2.8391376e+11 </wgt>
<wgt id='1085'> +2.8274025e+11 </wgt>
<wgt id='1086'> +2.8314282e+11 </wgt>
<wgt id='1087'> +2.8317150e+11 </wgt>
<wgt id='1088'> +2.8294855e+11 </wgt>
<wgt id='1089'> +2.8261305e+11 </wgt>
<wgt id='1090'> +2.8409768e+11 </wgt>
<wgt id='1091'> +2.8352089e+11 </wgt>
<wgt id='1092'> +2.8375937e+11 </wgt>
<wgt id='1093'> +2.8338609e+11 </wgt>
<wgt id='1094'> +2.8267496e+11 </wgt>
<wgt id='1095'> +2.8363105e+11 </wgt>
<wgt id='1096'> +2.8341749e+11 </wgt>
<wgt id='1097'> +2.8297389e+11 </wgt>
<wgt id='1098'> +2.8311408e+11 </wgt>
<wgt id='1099'> +2.8317738e+11 </wgt>
<wgt id='1100'> +2.8405248e+11 </wgt>
<wgt id='1101'> +2.8347888e+11 </wgt>
<wgt id='1102'> +2.8332313e+11 </wgt>
<wgt id='1103'> +2.8293307e+11 </wgt>
<wgt id='1104'> +2.8319110e+11 </wgt>
<wgt id='1105'> +2.8352727e+11 </wgt>
<wgt id='1106'> +2.8376297e+11 </wgt>
<wgt id='1107'> +2.8348227e+11 </wgt>
<wgt id='1108'> +2.8326123e+11 </wgt>
<wgt id='1109'> +2.8322737e+11 </wgt>
<wgt id='1110'> +2.8372122e+11 </wgt>
<wgt id='1111'> +2.8358628e+11 </wgt>
<wgt id='1112'> +2.8338576e+11 </wgt>
<wgt id='1113'> +2.8376511e+11 </wgt>
<wgt id='1114'> +2.8312580e+11 </wgt>
<wgt id='1115'> +2.8312466e+11 </wgt>
<wgt id='1116'> +2.8391290e+11 </wgt>
<wgt id='1117'> +2.8336060e+11 </wgt>
<wgt id='1118'> +2.8362195e+11 </wgt>
<wgt id='1119'> +2.8313876e+11 </wgt>
<wgt id='1120'> +2.8319762e+11 </wgt>
<wgt id='1121'> +2.8351487e+11 </wgt>
<wgt id='1122'> +2.8316731e+11 </wgt>
<wgt id='1123'> +2.8337615e+11 </wgt>
<wgt id='1124'> +2.8340926e+11 </wgt>
<wgt id='1125'> +2.8361036e+11 </wgt>
<wgt id='1126'> +2.8354262e+11 </wgt>
<wgt id='1127'> +2.8329369e+11 </wgt>
<wgt id='1128'> +2.8342259e+11 </wgt>
<wgt id='1129'> +2.8333004e+11 </wgt>
<wgt id='1130'> +2.8346179e+11 </wgt>
<wgt id='1131'> +2.8382446e+11 </wgt>
<wgt id='1132'> +2.8334599e+11 </wgt>
<wgt id='1133'> +2.8354258e+11 </wgt>
<wgt id='1134'> +2.8342172e+11 </wgt>
<wgt id='1135'> +2.8346681e+11 </wgt>
<wgt id='1136'> +2.8336076e+11 </wgt>
<wgt id='1137'> +2.8324747e+11 </wgt>
<wgt id='1138'> +2.8356387e+11 </wgt>
<wgt id='1139'> +2.8349176e+11 </wgt>
<wgt id='1140'> +2.8366689e+11 </wgt>
<wgt id='1141'> +2.8324111e+11 </wgt>
<wgt id='1142'> +2.8348565e+11 </wgt>
<wgt id='1143'> +2.8360738e+11 </wgt>
<wgt id='1144'> +2.8333051e+11 </wgt>
<wgt id='1145'> +2.8357022e+11 </wgt>
<wgt id='1146'> +2.8345709e+11 </wgt>
<wgt id='1147'> +2.8348521e+11 </wgt>
<wgt id='1148'> +2.8343000e+11 </wgt>
<wgt id='1149'> +2.8343000e+11 </wgt>
<wgt id='1150'> +2.9697875e+11 </wgt>
<wgt id='1151'> +2.7778683e+11 </wgt>
<wgt id='1152'> +2.7788638e+11 </wgt>
<wgt id='1153'> +2.8610940e+11 </wgt>
<wgt id='1154'> +2.8290711e+11 </wgt>
<wgt id='1155'> +2.9247503e+11 </wgt>
<wgt id='1156'> +2.7756565e+11 </wgt>
<wgt id='1157'> +2.7456541e+11 </wgt>
<wgt id='1158'> +2.7707554e+11 </wgt>
<wgt id='1159'> +2.9996598e+11 </wgt>
<wgt id='1160'> +2.8480975e+11 </wgt>
<wgt id='1161'> +2.8729318e+11 </wgt>
<wgt id='1162'> +2.8399765e+11 </wgt>
<wgt id='1163'> +2.8627336e+11 </wgt>
<wgt id='1164'> +2.7252575e+11 </wgt>
<wgt id='1165'> +2.7786610e+11 </wgt>
<wgt id='1166'> +2.8326597e+11 </wgt>
<wgt id='1167'> +2.7809104e+11 </wgt>
<wgt id='1168'> +2.7465714e+11 </wgt>
<wgt id='1169'> +2.7578391e+11 </wgt>
<wgt id='1170'> +2.8341367e+11 </wgt>
<wgt id='1171'> +2.7291731e+11 </wgt>
<wgt id='1172'> +2.7509152e+11 </wgt>
<wgt id='1173'> +2.8561530e+11 </wgt>
<wgt id='1174'> +2.7710504e+11 </wgt>
<wgt id='1175'> +2.7792274e+11 </wgt>
<wgt id='1176'> +2.8662089e+11 </wgt>
<wgt id='1177'> +2.7806423e+11 </wgt>
<wgt id='1178'> +2.8370832e+11 </wgt>
<wgt id='1179'> +2.8275582e+11 </wgt>
<wgt id='1180'> +2.8956119e+11 </wgt>
<wgt id='1181'> +2.8739493e+11 </wgt>
<wgt id='1182'> +2.8007514e+11 </wgt>
<wgt id='1183'> +2.9050566e+11 </wgt>
<wgt id='1184'> +2.8291215e+11 </wgt>
<wgt id='1185'> +2.8712137e+11 </wgt>
<wgt id='1186'> +2.7668093e+11 </wgt>
<wgt id='1187'> +2.8428882e+11 </wgt>
<wgt id='1188'> +2.8686891e+11 </wgt>
<wgt id='1189'> +2.8227201e+11 </wgt>
<wgt id='1190'> +2.8128249e+11 </wgt>
<wgt id='1191'> +2.9102870e+11 </wgt>
<wgt id='1192'> +2.8898938e+11 </wgt>
<wgt id='1193'> +2.9134774e+11 </wgt>
<wgt id='1194'> +2.8092133e+11 </wgt>
<wgt id='1195'> +2.8439313e+11 </wgt>
<wgt id='1196'> +2.9158988e+11 </wgt>
<wgt id='1197'> +2.9125790e+11 </wgt>
<wgt id='1198'> +2.8386791e+11 </wgt>
<wgt id='1199'> +2.8765174e+11 </wgt>
<wgt id='1200'> +2.8693031e+11 </wgt>
<wgt id='1201'> +2.8045579e+11 </wgt>
<wgt id='1202'> +2.8661539e+11 </wgt>
<wgt id='1203'> +2.8113164e+11 </wgt>
<wgt id='1204'> +2.8310657e+11 </wgt>
<wgt id='1205'> +2.8375395e+11 </wgt>
<wgt id='1206'> +2.7937310e+11 </wgt>
<wgt id='1207'> +2.9125179e+11 </wgt>
<wgt id='1208'> +2.7075565e+11 </wgt>
<wgt id='1209'> +2.8285489e+11 </wgt>
<wgt id='1210'> +2.8542243e+11 </wgt>
<wgt id='1211'> +2.8458523e+11 </wgt>
<wgt id='1212'> +2.8308252e+11 </wgt>
<wgt id='1213'> +2.8927867e+11 </wgt>
<wgt id='1214'> +2.7731341e+11 </wgt>
<wgt id='1215'> +2.8510473e+11 </wgt>
<wgt id='1216'> +2.8189207e+11 </wgt>
<wgt id='1217'> +2.7770449e+11 </wgt>
<wgt id='1218'> +2.8486960e+11 </wgt>
<wgt id='1219'> +2.9364025e+11 </wgt>
<wgt id='1220'> +2.7934594e+11 </wgt>
<wgt id='1221'> +2.7654108e+11 </wgt>
<wgt id='1222'> +2.7876447e+11 </wgt>
<wgt id='1223'> +2.7318650e+11 </wgt>
<wgt id='1224'> +2.8283419e+11 </wgt>
<wgt id='1225'> +2.8767115e+11 </wgt>
<wgt id='1226'> +2.8693540e+11 </wgt>
<wgt id='1227'> +2.7919144e+11 </wgt>
<wgt id='1228'> +2.8213298e+11 </wgt>
<wgt id='1229'> +3.0123173e+11 </wgt>
<wgt id='1230'> +2.9017331e+11 </wgt>
<wgt id='1231'> +2.7786610e+11 </wgt>
<wgt id='1232'> +2.8740289e+11 </wgt>
<wgt id='1233'> +2.7652300e+11 </wgt>
<wgt id='1234'> +2.7746581e+11 </wgt>
<wgt id='1235'> +2.9990863e+11 </wgt>
<wgt id='1236'> +2.7747411e+11 </wgt>
<wgt id='1237'> +2.8913185e+11 </wgt>
<wgt id='1238'> +2.8303197e+11 </wgt>
<wgt id='1239'> +2.8689773e+11 </wgt>
<wgt id='1240'> +2.7911343e+11 </wgt>
<wgt id='1241'> +2.8526455e+11 </wgt>
<wgt id='1242'> +2.8002335e+11 </wgt>
<wgt id='1243'> +2.8590231e+11 </wgt>
<wgt id='1244'> +2.8639759e+11 </wgt>
<wgt id='1245'> +2.7900062e+11 </wgt>
<wgt id='1246'> +3.0480951e+11 </wgt>
<wgt id='1247'> +2.8163400e+11 </wgt>
<wgt id='1248'> +2.7337867e+11 </wgt>
<wgt id='1249'> +2.7586558e+11 </wgt>
<wgt id='1250'> +2.9297987e+11 </wgt>
<wgt id='1251'> +3.0071763e+11 </wgt>
<wgt id='1252'> +2.8809332e+11 </wgt>
<wgt id='1253'> +2.8929604e+11 </wgt>
<wgt id='1254'> +2.8906225e+11 </wgt>
<wgt id='1255'> +3.0153228e+11 </wgt>
<wgt id='1256'> +3.0160722e+11 </wgt>
<wgt id='1257'> +2.9692867e+11 </wgt>
<wgt id='1258'> +2.9500776e+11 </wgt>
<wgt id='1259'> +3.0042570e+11 </wgt>
<wgt id='1260'> +3.2665343e+11 </wgt>
<wgt id='1261'> +3.1433453e+11 </wgt>
<wgt id='1262'> +2.9261914e+11 </wgt>
<wgt id='1263'> +2.9859464e+11 </wgt>
<wgt id='1264'> +3.0146107e+11 </wgt>
<wgt id='1265'> +2.9568187e+11 </wgt>
<wgt id='1266'> +3.0137277e+11 </wgt>
<wgt id='1267'> +3.3580934e+11 </wgt>
<wgt id='1268'> +2.9107641e+11 </wgt>
<wgt id='1269'> +2.8713115e+11 </wgt>
<wgt id='1270'> +3.0036573e+11 </wgt>
<wgt id='1271'> +2.7112854e+11 </wgt>
<wgt id='1272'> +2.9330458e+11 </wgt>
<wgt id='1273'> +2.9106080e+11 </wgt>
<wgt id='1274'> +2.8672646e+11 </wgt>
<wgt id='1275'> +2.9569713e+11 </wgt>
<wgt id='1276'> +3.0036652e+11 </wgt>
<wgt id='1277'> +2.9542401e+11 </wgt>
<wgt id='1278'> +2.9595727e+11 </wgt>
<wgt id='1279'> +2.8021663e+11 </wgt>
<wgt id='1280'> +2.8775458e+11 </wgt>
<wgt id='1281'> +2.8529297e+11 </wgt>
<wgt id='1282'> +2.9582681e+11 </wgt>
<wgt id='1283'> +3.0483596e+11 </wgt>
<wgt id='1284'> +3.1102129e+11 </wgt>
<wgt id='1285'> +3.0835984e+11 </wgt>
<wgt id='1286'> +3.2964867e+11 </wgt>
<wgt id='1287'> +3.0611991e+11 </wgt>
<wgt id='1288'> +3.3018868e+11 </wgt>
<wgt id='1289'> +3.1395295e+11 </wgt>
<wgt id='1290'> +3.1228748e+11 </wgt>
<wgt id='1291'> +2.7833382e+11 </wgt>
<wgt id='1292'> +3.0119158e+11 </wgt>
<wgt id='1293'> +3.0256098e+11 </wgt>
<wgt id='1294'> +3.1984830e+11 </wgt>
<wgt id='1295'> +3.0716673e+11 </wgt>
<wgt id='1296'> +3.2394360e+11 </wgt>
<wgt id='1297'> +2.9274579e+11 </wgt>
<wgt id='1298'> +2.8828078e+11 </wgt>
<wgt id='1299'> +3.0238941e+11 </wgt>
<wgt id='1300'> +2.8656287e+11 </wgt>
<wgt id='1301'> +2.7957549e+11 </wgt>
<wgt id='1302'> +2.8184643e+11 </wgt>
<wgt id='1303'> +3.0163499e+11 </wgt>
<wgt id='1304'> +3.1862161e+11 </wgt>
<wgt id='1305'> +2.9869113e+11 </wgt>
<wgt id='1306'> +3.0599609e+11 </wgt>
<wgt id='1307'> +2.9401177e+11 </wgt>
<wgt id='1308'> +3.2887661e+11 </wgt>
<wgt id='1309'> +2.9903780e+11 </wgt>
<wgt id='1310'> +3.0305275e+11 </wgt>
<wgt id='1311'> +3.0202276e+11 </wgt>
<wgt id='1312'> +3.0751822e+11 </wgt>
<wgt id='1313'> +3.0120592e+11 </wgt>
<wgt id='1314'> +2.9808014e+11 </wgt>
<wgt id='1315'> +2.8705093e+11 </wgt>
<wgt id='1316'> +2.9973737e+11 </wgt>
<wgt id='1317'> +3.0746689e+11 </wgt>
<wgt id='1318'> +2.9068428e+11 </wgt>
<wgt id='1319'> +2.9968801e+11 </wgt>
<wgt id='1320'> +3.1454558e+11 </wgt>
<wgt id='1321'> +2.9857054e+11 </wgt>
<wgt id='1322'> +3.0411344e+11 </wgt>
<wgt id='1323'> +2.9327908e+11 </wgt>
<wgt id='1324'> +3.0525778e+11 </wgt>
<wgt id='1325'> +3.1213704e+11 </wgt>
<wgt id='1326'> +3.0746048e+11 </wgt>
<wgt id='1327'> +3.0651869e+11 </wgt>
<wgt id='1328'> +2.9850249e+11 </wgt>
<wgt id='1329'> +2.9813299e+11 </wgt>
<wgt id='1330'> +2.8735150e+11 </wgt>
<wgt id='1331'> +3.2170428e+11 </wgt>
<wgt id='1332'> +2.9303900e+11 </wgt>
<wgt id='1333'> +3.0196330e+11 </wgt>
<wgt id='1334'> +3.1595820e+11 </wgt>
<wgt id='1335'> +2.9306639e+11 </wgt>
<wgt id='1336'> +3.1108228e+11 </wgt>
<wgt id='1337'> +3.0901191e+11 </wgt>
<wgt id='1338'> +2.8855244e+11 </wgt>
<wgt id='1339'> +3.1724079e+11 </wgt>
<wgt id='1340'> +3.0537583e+11 </wgt>
<wgt id='1341'> +3.1578642e+11 </wgt>
<wgt id='1342'> +3.0754325e+11 </wgt>
<wgt id='1343'> +3.0941955e+11 </wgt>
<wgt id='1344'> +3.1263696e+11 </wgt>
<wgt id='1345'> +2.6996567e+11 </wgt>
<wgt id='1346'> +3.0296188e+11 </wgt>
<wgt id='1347'> +2.9048056e+11 </wgt>
<wgt id='1348'> +2.8975517e+11 </wgt>
<wgt id='1349'> +2.8783747e+11 </wgt>
<wgt id='1350'> +3.0565957e+11 </wgt>
<wgt id='1351'> +2.9336882e+11 </wgt>
<wgt id='1352'> +3.0281914e+11 </wgt>
<wgt id='1353'> +2.9956479e+11 </wgt>
<wgt id='1354'> +3.0883504e+11 </wgt>
<wgt id='1355'> +2.7678263e+11 </wgt>
<wgt id='1356'> +2.7945373e+11 </wgt>
<wgt id='1357'> +2.7716901e+11 </wgt>
<wgt id='1358'> +2.7485398e+11 </wgt>
<wgt id='1359'> +2.7668120e+11 </wgt>
<wgt id='1360'> +2.7138273e+11 </wgt>
<wgt id='1361'> +2.7596004e+11 </wgt>
<wgt id='1362'> +2.8240784e+11 </wgt>
<wgt id='1363'> +2.7317859e+11 </wgt>
<wgt id='1364'> +2.8184221e+11 </wgt>
<wgt id='1365'> +2.7460125e+11 </wgt>
<wgt id='1366'> +2.7422236e+11 </wgt>
<wgt id='1367'> +2.7707934e+11 </wgt>
<wgt id='1368'> +2.7712979e+11 </wgt>
<wgt id='1369'> +2.7993373e+11 </wgt>
<wgt id='1370'> +2.7441697e+11 </wgt>
<wgt id='1371'> +2.7662365e+11 </wgt>
<wgt id='1372'> +2.7944251e+11 </wgt>
<wgt id='1373'> +2.8002569e+11 </wgt>
<wgt id='1374'> +2.6912710e+11 </wgt>
<wgt id='1375'> +2.7725481e+11 </wgt>
<wgt id='1376'> +2.7641188e+11 </wgt>
<wgt id='1377'> +2.7733549e+11 </wgt>
<wgt id='1378'> +2.7520192e+11 </wgt>
<wgt id='1379'> +2.7526007e+11 </wgt>
<wgt id='1380'> +2.7447215e+11 </wgt>
<wgt id='1381'> +2.8163668e+11 </wgt>
<wgt id='1382'> +2.7593310e+11 </wgt>
<wgt id='1383'> +2.7505830e+11 </wgt>
<wgt id='1384'> +2.7371123e+11 </wgt>
<wgt id='1385'> +2.7327943e+11 </wgt>
<wgt id='1386'> +2.7633201e+11 </wgt>
<wgt id='1387'> +2.7517858e+11 </wgt>
<wgt id='1388'> +2.7229086e+11 </wgt>
<wgt id='1389'> +2.7567762e+11 </wgt>
<wgt id='1390'> +2.7797159e+11 </wgt>
<wgt id='1391'> +2.7492181e+11 </wgt>
<wgt id='1392'> +2.7399721e+11 </wgt>
<wgt id='1393'> +2.7664100e+11 </wgt>
<wgt id='1394'> +2.7516715e+11 </wgt>
<wgt id='1395'> +2.7207182e+11 </wgt>
<wgt id='1396'> +2.7736528e+11 </wgt>
<wgt id='1397'> +2.7756189e+11 </wgt>
<wgt id='1398'> +2.7873436e+11 </wgt>
<wgt id='1399'> +2.7390525e+11 </wgt>
<wgt id='1400'> +2.7256685e+11 </wgt>
<wgt id='1401'> +2.7692260e+11 </wgt>
<wgt id='1402'> +2.7958133e+11 </wgt>
<wgt id='1403'> +2.8283231e+11 </wgt>
<wgt id='1404'> +2.7792203e+11 </wgt>
<wgt id='1405'> +2.8319505e+11 </wgt>
<wgt id='1406'> +2.7829816e+11 </wgt>
<wgt id='1407'> +2.7715065e+11 </wgt>
<wgt id='1408'> +2.8169931e+11 </wgt>
<wgt id='1409'> +2.7322318e+11 </wgt>
<wgt id='1410'> +2.7093351e+11 </wgt>
<wgt id='1411'> +2.7650611e+11 </wgt>
<wgt id='1412'> +2.7506392e+11 </wgt>
<wgt id='1413'> +2.7566245e+11 </wgt>
<wgt id='1414'> +2.7917877e+11 </wgt>
<wgt id='1415'> +2.7984369e+11 </wgt>
<wgt id='1416'> +2.7900182e+11 </wgt>
<wgt id='1417'> +2.7270359e+11 </wgt>
<wgt id='1418'> +2.7703089e+11 </wgt>
<wgt id='1419'> +2.8053002e+11 </wgt>
<wgt id='1420'> +2.7463163e+11 </wgt>
<wgt id='1421'> +2.8298568e+11 </wgt>
<wgt id='1422'> +2.6990195e+11 </wgt>
<wgt id='1423'> +2.8154688e+11 </wgt>
<wgt id='1424'> +2.7789319e+11 </wgt>
<wgt id='1425'> +2.7736759e+11 </wgt>
<wgt id='1426'> +2.7915116e+11 </wgt>
<wgt id='1427'> +2.7620078e+11 </wgt>
<wgt id='1428'> +2.7605688e+11 </wgt>
<wgt id='1429'> +2.7578148e+11 </wgt>
<wgt id='1430'> +2.7283183e+11 </wgt>
<wgt id='1431'> +2.7185888e+11 </wgt>
<wgt id='1432'> +2.7622454e+11 </wgt>
<wgt id='1433'> +2.7498522e+11 </wgt>
<wgt id='1434'> +2.8422534e+11 </wgt>
<wgt id='1435'> +2.7575485e+11 </wgt>
<wgt id='1436'> +2.8054606e+11 </wgt>
<wgt id='1437'> +2.7719258e+11 </wgt>
<wgt id='1438'> +2.7588622e+11 </wgt>
<wgt id='1439'> +2.8036914e+11 </wgt>
<wgt id='1440'> +2.7953389e+11 </wgt>
<wgt id='1441'> +2.7450725e+11 </wgt>
<wgt id='1442'> +2.8193945e+11 </wgt>
<wgt id='1443'> +2.7431982e+11 </wgt>
<wgt id='1444'> +2.7861989e+11 </wgt>
<wgt id='1445'> +2.7795643e+11 </wgt>
<wgt id='1446'> +2.8190583e+11 </wgt>
<wgt id='1447'> +2.7435098e+11 </wgt>
<wgt id='1448'> +2.7923267e+11 </wgt>
<wgt id='1449'> +2.7942374e+11 </wgt>
<wgt id='1450'> +2.7592539e+11 </wgt>
<wgt id='1451'> +2.7806845e+11 </wgt>
<wgt id='1452'> +2.7907503e+11 </wgt>
<wgt id='1453'> +2.7882761e+11 </wgt>
<wgt id='1454'> +2.6908707e+11 </wgt>
<wgt id='1455'> +2.7563372e+11 </wgt>
<wgt id='1456'> +2.7575668e+11 </wgt>
<wgt id='1457'> +2.7582049e+11 </wgt>
<wgt id='1458'> +2.8086794e+11 </wgt>
<wgt id='1459'> +3.0842535e+11 </wgt>
<wgt id='1460'> +3.0353657e+11 </wgt>
<wgt id='1461'> +3.5689103e+11 </wgt>
<wgt id='1462'> +2.9922736e+11 </wgt>
<wgt id='1463'> +2.9946065e+11 </wgt>
<wgt id='1464'> +2.9892816e+11 </wgt>
<wgt id='1465'> +2.9929175e+11 </wgt>
<wgt id='1466'> +2.9916853e+11 </wgt>
<wgt id='1467'> +2.9936369e+11 </wgt>
<wgt id='1468'> +2.9900365e+11 </wgt>
<wgt id='1469'> +2.9878901e+11 </wgt>
<wgt id='1470'> +2.9958336e+11 </wgt>
<wgt id='1471'> +2.9968790e+11 </wgt>
<wgt id='1472'> +2.9875299e+11 </wgt>
<wgt id='1473'> +3.0039844e+11 </wgt>
<wgt id='1474'> +2.9810253e+11 </wgt>
<wgt id='1475'> +3.0034017e+11 </wgt>
<wgt id='1476'> +2.9843844e+11 </wgt>
<wgt id='1477'> +2.9867028e+11 </wgt>
<wgt id='1478'> +3.0052875e+11 </wgt>
<wgt id='1479'> +2.9877982e+11 </wgt>
<wgt id='1480'> +2.9954216e+11 </wgt>
<wgt id='1481'> +2.9875178e+11 </wgt>
<wgt id='1482'> +2.9986961e+11 </wgt>
<wgt id='1483'> +2.9930884e+11 </wgt>
<wgt id='1484'> +2.9911299e+11 </wgt>
<wgt id='1485'> +2.9943524e+11 </wgt>
<wgt id='1486'> +2.9872674e+11 </wgt>
<wgt id='1487'> +2.9949724e+11 </wgt>
<wgt id='1488'> +2.9888975e+11 </wgt>
<wgt id='1489'> +2.9886558e+11 </wgt>
<wgt id='1490'> +3.0020832e+11 </wgt>
<wgt id='1491'> +3.0417161e+11 </wgt>
<wgt id='1492'> +2.9647035e+11 </wgt>
<wgt id='1493'> +2.9566066e+11 </wgt>
<wgt id='1494'> +3.1041100e+11 </wgt>
<wgt id='1495'> +2.9850821e+11 </wgt>
<wgt id='1496'> +2.9999917e+11 </wgt>
<wgt id='1497'> +2.9942764e+11 </wgt>
<wgt id='1498'> +2.9895368e+11 </wgt>
<wgt id='1499'> +3.0118159e+11 </wgt>
<wgt id='1500'> +2.9815918e+11 </wgt>
<wgt id='1501'> +2.9964960e+11 </wgt>
<wgt id='1502'> +2.9811005e+11 </wgt>
<wgt id='1503'> +2.9567899e+11 </wgt>
<wgt id='1504'> +3.0308428e+11 </wgt>
<wgt id='1505'> +3.0010574e+11 </wgt>
<wgt id='1506'> +2.9837227e+11 </wgt>
<wgt id='1507'> +3.0135744e+11 </wgt>
<wgt id='1508'> +2.9662822e+11 </wgt>
<wgt id='1509'> +2.9988634e+11 </wgt>
<wgt id='1510'> +2.9639346e+11 </wgt>
<wgt id='1511'> +3.0039840e+11 </wgt>
<wgt id='1512'> +2.9887193e+11 </wgt>
<wgt id='1513'> +2.9911922e+11 </wgt>
<wgt id='1514'> +2.9934833e+11 </wgt>
<wgt id='1515'> +3.0215784e+11 </wgt>
<wgt id='1516'> +2.9933833e+11 </wgt>
<wgt id='1517'> +2.9879738e+11 </wgt>
<wgt id='1518'> +2.9968898e+11 </wgt>
<wgt id='1519'> +2.9744932e+11 </wgt>
<wgt id='1520'> +3.0049005e+11 </wgt>
<wgt id='1521'> +2.9827253e+11 </wgt>
<wgt id='1522'> +2.9978199e+11 </wgt>
<wgt id='1523'> +3.0048890e+11 </wgt>
<wgt id='1524'> +3.0072143e+11 </wgt>
<wgt id='1525'> +3.0024158e+11 </wgt>
<wgt id='1526'> +3.0029922e+11 </wgt>
<wgt id='1527'> +2.9922736e+11 </wgt>
<wgt id='1528'> +2.9868440e+11 </wgt>
<wgt id='1529'> +2.9933918e+11 </wgt>
<wgt id='1530'> +2.9545259e+11 </wgt>
<wgt id='1531'> +2.9864896e+11 </wgt>
<wgt id='1532'> +2.9684825e+11 </wgt>
<wgt id='1533'> +2.9372667e+11 </wgt>
<wgt id='1534'> +2.9710279e+11 </wgt>
<wgt id='1535'> +3.0135032e+11 </wgt>
<wgt id='1536'> +2.9585415e+11 </wgt>
<wgt id='1537'> +2.9910897e+11 </wgt>
<wgt id='1538'> +2.9526557e+11 </wgt>
<wgt id='1539'> +3.0423829e+11 </wgt>
<wgt id='1540'> +2.9864414e+11 </wgt>
<wgt id='1541'> +2.9962066e+11 </wgt>
<wgt id='1542'> +2.9867816e+11 </wgt>
<wgt id='1543'> +3.0005183e+11 </wgt>
<wgt id='1544'> +2.9683846e+11 </wgt>
<wgt id='1545'> +2.9663600e+11 </wgt>
<wgt id='1546'> +2.9474235e+11 </wgt>
<wgt id='1547'> +3.0096687e+11 </wgt>
<wgt id='1548'> +2.9699807e+11 </wgt>
<wgt id='1549'> +2.9517201e+11 </wgt>
<wgt id='1550'> +2.9992953e+11 </wgt>
<wgt id='1551'> +2.9924522e+11 </wgt>
<wgt id='1552'> +2.9835778e+11 </wgt>
<wgt id='1553'> +3.0152316e+11 </wgt>
<wgt id='1554'> +2.9862423e+11 </wgt>
<wgt id='1555'> +2.9942177e+11 </wgt>
<wgt id='1556'> +3.0092010e+11 </wgt>
<wgt id='1557'> +2.9786876e+11 </wgt>
<wgt id='1558'> +2.9884934e+11 </wgt>
<wgt id='1559'> +2.9628676e+11 </wgt>
<wgt id='1560'> +2.9738634e+11 </wgt>
<wgt id='1561'> +2.9569445e+11 </wgt>
<wgt id='1562'> +2.9720495e+11 </wgt>
<wgt id='1563'> +2.9878038e+11 </wgt>
<wgt id='1564'> +2.9824779e+11 </wgt>
<wgt id='1565'> +3.0093293e+11 </wgt>
<wgt id='1566'> +2.9866246e+11 </wgt>
<wgt id='1567'> +3.0152340e+11 </wgt>
<wgt id='1568'> +2.9854932e+11 </wgt>
<wgt id='1569'> +2.9821180e+11 </wgt>
<wgt id='1570'> +3.0487840e+11 </wgt>
<wgt id='1571'> +2.9857637e+11 </wgt>
<wgt id='1572'> +3.0067252e+11 </wgt>
<wgt id='1573'> +3.0214233e+11 </wgt>
<wgt id='1574'> +2.5859872e+11 </wgt>
<wgt id='1575'> +2.5866799e+11 </wgt>
<wgt id='1576'> +2.5853081e+11 </wgt>
<wgt id='1577'> +2.5861677e+11 </wgt>
<wgt id='1578'> +2.5919532e+11 </wgt>
<wgt id='1579'> +2.5943063e+11 </wgt>
<wgt id='1580'> +2.5919939e+11 </wgt>
<wgt id='1581'> +2.5804483e+11 </wgt>
<wgt id='1582'> +2.5775768e+11 </wgt>
<wgt id='1583'> +2.5815304e+11 </wgt>
<wgt id='1584'> +2.5916756e+11 </wgt>
<wgt id='1585'> +2.5881300e+11 </wgt>
<wgt id='1586'> +2.5768325e+11 </wgt>
<wgt id='1587'> +2.5788609e+11 </wgt>
<wgt id='1588'> +2.5741401e+11 </wgt>
<wgt id='1589'> +2.5831681e+11 </wgt>
<wgt id='1590'> +2.5843101e+11 </wgt>
<wgt id='1591'> +2.5867298e+11 </wgt>
<wgt id='1592'> +2.5759407e+11 </wgt>
<wgt id='1593'> +2.5762379e+11 </wgt>
<wgt id='1594'> +2.5953081e+11 </wgt>
<wgt id='1595'> +2.5621858e+11 </wgt>
<wgt id='1596'> +2.6250797e+11 </wgt>
<wgt id='1597'> +2.6037739e+11 </wgt>
<wgt id='1598'> +2.6055450e+11 </wgt>
<wgt id='1599'> +2.5572294e+11 </wgt>
<wgt id='1600'> +2.6326399e+11 </wgt>
<wgt id='1601'> +2.6074928e+11 </wgt>
<wgt id='1602'> +2.5864241e+11 </wgt>
<wgt id='1603'> +2.7073617e+11 </wgt>
<wgt id='1604'> +2.5874571e+11 </wgt>
</rwgt>
</event>
<event>
 9      1 +2.8343000e+11 1.39999400e+03 7.81738600e-03 7.88881500e-02
       21 -1    0    0  504  503 +0.0000000000e+00 +0.0000000000e+00 +1.0410984489e+03 1.0410984489e+03 0.0000000000e+00 0.0000e+00 1.0000e+00
       21 -1    0    0  503  504 -0.0000000000e+00 -0.0000000000e+00 -4.7065285241e+02 4.7065285241e+02 0.0000000000e+00 0.0000e+00 1.0000e+00
       45  2    1    2    0    0 +1.1368683772e-13 +5.6843418861e-14 +5.7044559652e+02 1.5117513014e+03 1.3999942209e+03 0.0000e+00 0.0000e+00
       25  2    3    3    0    0 -4.7340919723e+02 -4.6781507022e+02 +8.3800244939e+01 6.8235911514e+02 1.2499709202e+02 0.0000e+00 0.0000e+00
       35  2    3    3    0    0 +4.7340919723e+02 +4.6781507022e+02 +4.8664535159e+02 8.2939218621e+02 9.0002735410e+01 0.0000e+00 0.0000e+00
        5  1    5    5  501    0 +2.6551197416e+02 +2.7389017016e+02 +3.3201449080e+02 5.0573096962e+02 4.2140000000e+00 0.0000e+00 1.0000e+00
       -5  1    5    5    0  501 +2.0789722307e+02 +1.9392490007e+02 +1.5463086078e+02 3.2366121660e+02 4.2140000000e+00 0.0000e+00 1.0000e+00
        5  1    4    4  502    0 -1.1718009808e+02 -5.1485760284e+01 +1.4098672607e-01 1.2806145623e+02 4.2140000000e+00 0.0000e+00 1.0000e+00
       -5  1    4    4    0  502 -3.5622909915e+02 -4.1632930994e+02 +8.3659258213e+01 5.5429765891e+02 4.2140000000e+00 0.0000e+00 1.0000e+00
<mgrwt>
<rscale>  0 0.13999942E+04</rscale>
<asrwt>0</asrwt>
<pdfrwt beam="1">  1       21 0.16016899E+00 0.13999942E+04</pdfrwt>
<pdfrwt beam="2">  1       21 0.72408131E-01 0.13999942E+04</pdfrwt>
<totfact> 0.31341468E+02</totfact>
</mgrwt>
<rwgt>
<wgt id='1001'> +2.8343000e+11 </wgt>
<wgt id='1002'> +2.8537891e+11 </wgt>
<wgt id='1003'> +2.8537831e+11 </wgt>
<wgt id='1004'> +3.2060219e+11 </wgt>
<wgt id='1005'> +2.8343000e+11 </wgt>
<wgt id='1006'> +2.8343000e+11 </wgt>
<wgt id='1007'> +2.8537891e+11 </wgt>
<wgt id='1008'> +2.8537831e+11 </wgt>
<wgt id='1009'> +3.2060219e+11 </wgt>
<wgt id='1010'> +2.8343000e+11 </wgt>
<wgt id='1011'> +2.8343000e+11 </wgt>
<wgt id='1012'> +2.8537891e+11 </wgt>
<wgt id='1013'> +2.8537831e+11 </wgt>
<wgt id='1014'> +3.2060219e+11 </wgt>
<wgt id='1015'> +2.8343000e+11 </wgt>
<wgt id='1016'> +2.5425436e+11 </wgt>
<wgt id='1017'> +2.5590244e+11 </wgt>
<wgt id='1018'> +2.5590193e+11 </wgt>
<wgt id='1019'> +2.8537831e+11 </wgt>
<wgt id='1020'> +2.5425436e+11 </wgt>
<wgt id='1021'> +2.5425436e+11 </wgt>
<wgt id='1022'> +2.5590244e+11 </wgt>
<wgt id='1023'> +2.5590193e+11 </wgt>
<wgt id='1024'> +2.8537831e+11 </wgt>
<wgt id='1025'> +2.5425436e+11 </wgt>
<wgt id='1026'> +2.5425436e+11 </wgt>
<wgt id='1027'> +2.5590244e+11 </wgt>
<wgt id='1028'> +2.5590193e+11 </wgt>
<wgt id='1029'> +2.8537831e+11 </wgt>
<wgt id='1030'> +2.5425436e+11 </wgt>
<wgt id='1031'> +3.1826035e+11 </wgt>
<wgt id='1032'> +3.2060291e+11 </wgt>
<wgt id='1033'> +3.2060219e+11 </wgt>
<wgt id='1034'> +3.6304226e+11 </wgt>
<wgt id='1035'> +3.1826035e+11 </wgt>
<wgt id='1036'> +3.1826035e+11 </wgt>
<wgt id='1037'> +3.2060291e+11 </wgt>
<wgt id='1038'> +3.2060219e+11 </wgt>
<wgt id='1039'> +3.6304226e+11 </wgt>
<wgt id='1040'> +3.1826035e+11 </wgt>
<wgt id='1041'> +3.1826035e+11 </wgt>
<wgt id='1042'> +3.2060291e+11 </wgt>
<wgt id='1043'> +3.2060219e+11 </wgt>
<wgt id='1044'> +3.6304226e+11 </wgt>
<wgt id='1045'> +3.1826035e+11 </wgt>
<wgt id='1046'> +2.8343000e+11 </wgt>
<wgt id='1047'> +2.8343000e+11 </wgt>
<wgt id='1048'> +2.8343000e+11 </wgt>
<wgt id='1049'> +2.8268481e+11 </wgt>
<wgt id='1050'> +2.8323303e+11 </wgt>
<wgt id='1051'> +2.8332567e+11 </wgt>
<wgt id='1052'> +2.8435003e+11 </wgt>
<wgt id='1053'> +2.8173612e+11 </wgt>
<wgt id='1054'> +2.8373612e+11 </wgt>
<wgt id='1055'> +2.8224247e+11 </wgt>
<wgt id='1056'> +2.8206595e+11 </wgt>
<wgt id='1057'> +2.8374478e+11 </wgt>
<wgt id='1058'> +2.8289118e+11 </wgt>
<wgt id='1059'> +2.8521900e+11 </wgt>
<wgt id='1060'> +2.8376977e+11 </wgt>
<wgt id='1061'> +2.8399324e+11 </wgt>
<wgt id='1062'> +2.8421366e+11 </wgt>
<wgt id='1063'> +2.8428960e+11 </wgt>
<wgt id='1064'> +2.8417369e+11 </wgt>
<wgt id='1065'> +2.8468663e+11 </wgt>
<wgt id='1066'> +2.8136976e+11 </wgt>
<wgt id='1067'> +2.8114204e+11 </wgt>
<wgt id='1068'> +2.8332993e+11 </wgt>
<wgt id='1069'> +2.8258004e+11 </wgt>
<wgt id='1070'> +2.8383119e+11 </wgt>
<wgt id='1071'> +2.8358707e+11 </wgt>
<wgt id='1072'> +2.8185566e+11 </wgt>
<wgt id='1073'> +2.8361178e+11 </wgt>
<wgt id='1074'> +2.8332149e+11 </wgt>
<wgt id='1075'> +2.8449024e+11 </wgt>
<wgt id='1076'> +2.8181195e+11 </wgt>
<wgt id='1077'> +2.8220085e+11 </wgt>
<wgt id='1078'> +2.8409101e+11 </wgt>
<wgt id='1079'> +2.8213769e+11 </wgt>
<wgt id='1080'> +2.8313940e+11 </wgt>
<wgt id='1081'> +2.8294140e+11 </wgt>
<wgt id='1082'> +2.8218451e+11 </wgt>
<wgt id='1083'> +2.8383800e+11 </wgt>
<wgt id='1084'> +2.8393272e+11 </wgt>
<wgt id='1085'> +2.8275325e+11 </wgt>
<wgt id='1086'> +2.8308793e+11 </wgt>
<wgt id='1087'> +2.8312726e+11 </wgt>
<wgt id='1088'> +2.8293164e+11 </wgt>
<wgt id='1089'> +2.8267001e+11 </wgt>
<wgt id='1090'> +2.8412658e+11 </wgt>
<wgt id='1091'> +2.8351940e+11 </wgt>
<wgt id='1092'> +2.8375491e+11 </wgt>
<wgt id='1093'> +2.8334468e+11 </wgt>
<wgt id='1094'> +2.8275080e+11 </wgt>
<wgt id='1095'> +2.8361830e+11 </wgt>
<wgt id='1096'> +2.8339910e+11 </wgt>
<wgt id='1097'> +2.8300536e+11 </wgt>
<wgt id='1098'> +2.8309850e+11 </wgt>
<wgt id='1099'> +2.8316176e+11 </wgt>
<wgt id='1100'> +2.8403739e+11 </wgt>
<wgt id='1101'> +2.8345170e+11 </wgt>
<wgt id='1102'> +2.8330824e+11 </wgt>
<wgt id='1103'> +2.8298479e+11 </wgt>
<wgt id='1104'> +2.8317058e+11 </wgt>
<wgt id='1105'> +2.8353636e+11 </wgt>
<wgt id='1106'> +2.8376023e+11 </wgt>
<wgt id='1107'> +2.8343285e+11 </wgt>
<wgt id='1108'> +2.8328734e+11 </wgt>
<wgt id='1109'> +2.8321983e+11 </wgt>
<wgt id='1110'> +2.8373165e+11 </wgt>
<wgt id='1111'> +2.8357132e+11 </wgt>
<wgt id='1112'> +2.8338424e+11 </wgt>
<wgt id='1113'> +2.8375328e+11 </wgt>
<wgt id='1114'> +2.8311873e+11 </wgt>
<wgt id='1115'> +2.8315339e+11 </wgt>
<wgt id='1116'> +2.8386560e+11 </wgt>
<wgt id='1117'> +2.8336246e+11 </wgt>
<wgt id='1118'> +2.8358718e+11 </wgt>
<wgt id='1119'> +2.8317365e+11 </wgt>
<wgt id='1120'> +2.8322655e+11 </wgt>
<wgt id='1121'> +2.8350763e+11 </wgt>
<wgt id='1122'> +2.8318495e+11 </wgt>
<wgt id='1123'> +2.8337250e+11 </wgt>
<wgt id='1124'> +2.8339444e+11 </wgt>
<wgt id='1125'> +2.8360250e+11 </wgt>
<wgt id='1126'> +2.8354124e+11 </wgt>
<wgt id='1127'> +2.8330907e+11 </wgt>
<wgt id='1128'> +2.8343753e+11 </wgt>
<wgt id='1129'> +2.8334690e+11 </wgt>
<wgt id='1130'> +2.8346718e+11 </wgt>
<wgt id='1131'> +2.8378701e+11 </wgt>
<wgt id='1132'> +2.8334881e+11 </wgt>
<wgt id='1133'> +2.8352979e+11 </wgt>
<wgt id='1134'> +2.8342087e+11 </wgt>
<wgt id='1135'> +2.8346703e+11 </wgt>
<wgt id='1136'> +2.8336839e+11 </wgt>
<wgt id='1137'> +2.8325973e+11 </wgt>
<wgt id='1138'> +2.8355792e+11 </wgt>
<wgt id='1139'> +2.8348810e+11 </wgt>
<wgt id='1140'> +2.8365539e+11 </wgt>
<wgt id='1141'> +2.8325843e+11 </wgt>
<wgt id='1142'> +2.8349663e+11 </wgt>
<wgt id='1143'> +2.8359981e+11 </wgt>
<wgt id='1144'> +2.8333312e+11 </wgt>
<wgt id='1145'> +2.8356676e+11 </wgt>
<wgt id='1146'> +2.8344574e+11 </wgt>
<wgt id='1147'> +2.8348202e+11 </wgt>
<wgt id='1148'> +2.8343000e+11 </wgt>
<wgt id='1149'> +2.8343000e+11 </wgt>
<wgt id='1150'> +2.9634971e+11 </wgt>
<wgt id='1151'> +2.7846564e+11 </wgt>
<wgt id='1152'> +2.7942709e+11 </wgt>
<wgt id='1153'> +2.8639627e+11 </wgt>
<wgt id='1154'> +2.8393416e+11 </wgt>
<wgt id='1155'> +2.9149702e+11 </wgt>
<wgt id='1156'> +2.7731453e+11 </wgt>
<wgt id='1157'> +2.7474865e+11 </wgt>
<wgt id='1158'> +2.7715115e+11 </wgt>
<wgt id='1159'> +2.9959043e+11 </wgt>
<wgt id='1160'> +2.8418592e+11 </wgt>
<wgt id='1161'> +2.8646655e+11 </wgt>
<wgt id='1162'> +2.8274133e+11 </wgt>
<wgt id='1163'> +2.8624419e+11 </wgt>
<wgt id='1164'> +2.7152137e+11 </wgt>
<wgt id='1165'> +2.7773363e+11 </wgt>
<wgt id='1166'> +2.8349581e+11 </wgt>
<wgt id='1167'> +2.7833760e+11 </wgt>
<wgt id='1168'> +2.7504002e+11 </wgt>
<wgt id='1169'> +2.7570631e+11 </wgt>
<wgt id='1170'> +2.8239493e+11 </wgt>
<wgt id='1171'> +2.7289966e+11 </wgt>
<wgt id='1172'> +2.7561974e+11 </wgt>
<wgt id='1173'> +2.8592081e+11 </wgt>
<wgt id='1174'> +2.7752765e+11 </wgt>
<wgt id='1175'> +2.7741003e+11 </wgt>
<wgt id='1176'> +2.8644149e+11 </wgt>
<wgt id='1177'> +2.7813618e+11 </wgt>
<wgt id='1178'> +2.8337359e+11 </wgt>
<wgt id='1179'> +2.8192160e+11 </wgt>
<wgt id='1180'> +2.9045372e+11 </wgt>
<wgt id='1181'> +2.8478921e+11 </wgt>
<wgt id='1182'> +2.8021271e+11 </wgt>
<wgt id='1183'> +2.9153926e+11 </wgt>
<wgt id='1184'> +2.8294524e+11 </wgt>
<wgt id='1185'> +2.8622991e+11 </wgt>
<wgt id='1186'> +2.7578669e+11 </wgt>
<wgt id='1187'> +2.8440343e+11 </wgt>
<wgt id='1188'> +2.8535501e+11 </wgt>
<wgt id='1189'> +2.8284169e+11 </wgt>
<wgt id='1190'> +2.8185475e+11 </wgt>
<wgt id='1191'> +2.9177095e+11 </wgt>
<wgt id='1192'> +2.8955698e+11 </wgt>
<wgt id='1193'> +2.9221634e+11 </wgt>
<wgt id='1194'> +2.8175615e+11 </wgt>
<wgt id='1195'> +2.8398470e+11 </wgt>
<wgt id='1196'> +2.9173081e+11 </wgt>
<wgt id='1197'> +2.9174805e+11 </wgt>
<wgt id='1198'> +2.8218289e+11 </wgt>
<wgt id='1199'> +2.8702747e+11 </wgt>
<wgt id='1200'> +2.8579668e+11 </wgt>
<wgt id='1201'> +2.8013421e+11 </wgt>
<wgt id='1202'> +2.8707161e+11 </wgt>
<wgt id='1203'> +2.8018993e+11 </wgt>
<wgt id='1204'> +2.8420967e+11 </wgt>
<wgt id='1205'> +2.8381718e+11 </wgt>
<wgt id='1206'> +2.7874198e+11 </wgt>
<wgt id='1207'> +2.9150522e+11 </wgt>
<wgt id='1208'> +2.7103775e+11 </wgt>
<wgt id='1209'> +2.8195586e+11 </wgt>
<wgt id='1210'> +2.8434735e+11 </wgt>
<wgt id='1211'> +2.8520984e+11 </wgt>
<wgt id='1212'> +2.8311303e+11 </wgt>
<wgt id='1213'> +2.9022025e+11 </wgt>
<wgt id='1214'> +2.7679335e+11 </wgt>
<wgt id='1215'> +2.8687288e+11 </wgt>
<wgt id='1216'> +2.8320705e+11 </wgt>
<wgt id='1217'> +2.7704974e+11 </wgt>
<wgt id='1218'> +2.8477691e+11 </wgt>
<wgt id='1219'> +2.9373368e+11 </wgt>
<wgt id='1220'> +2.7878457e+11 </wgt>
<wgt id='1221'> +2.7619384e+11 </wgt>
<wgt id='1222'> +2.7898878e+11 </wgt>
<wgt id='1223'> +2.7298922e+11 </wgt>
<wgt id='1224'> +2.8303684e+11 </wgt>
<wgt id='1225'> +2.8816920e+11 </wgt>
<wgt id='1226'> +2.8767381e+11 </wgt>
<wgt id='1227'> +2.7801178e+11 </wgt>
<wgt id='1228'> +2.8193522e+11 </wgt>
<wgt id='1229'> +3.0168094e+11 </wgt>
<wgt id='1230'> +2.9102873e+11 </wgt>
<wgt id='1231'> +2.7773363e+11 </wgt>
<wgt id='1232'> +2.8760365e+11 </wgt>
<wgt id='1233'> +2.7675871e+11 </wgt>
<wgt id='1234'> +2.7692023e+11 </wgt>
<wgt id='1235'> +3.0034499e+11 </wgt>
<wgt id='1236'> +2.7712324e+11 </wgt>
<wgt id='1237'> +2.8905048e+11 </wgt>
<wgt id='1238'> +2.8451641e+11 </wgt>
<wgt id='1239'> +2.8776320e+11 </wgt>
<wgt id='1240'> +2.8056777e+11 </wgt>
<wgt id='1241'> +2.8426433e+11 </wgt>
<wgt id='1242'> +2.8002549e+11 </wgt>
<wgt id='1243'> +2.8656422e+11 </wgt>
<wgt id='1244'> +2.8485604e+11 </wgt>
<wgt id='1245'> +2.7980519e+11 </wgt>
<wgt id='1246'> +3.0527648e+11 </wgt>
<wgt id='1247'> +2.8194663e+11 </wgt>
<wgt id='1248'> +2.7366348e+11 </wgt>
<wgt id='1249'> +2.7615862e+11 </wgt>
<wgt id='1250'> +2.9273055e+11 </wgt>
<wgt id='1251'> +3.0047156e+11 </wgt>
<wgt id='1252'> +2.8817830e+11 </wgt>
<wgt id='1253'> +2.8841732e+11 </wgt>
<wgt id='1254'> +2.8914876e+11 </wgt>
<wgt id='1255'> +3.0087598e+11 </wgt>
<wgt id='1256'> +3.0062952e+11 </wgt>
<wgt id='1257'> +2.9489404e+11 </wgt>
<wgt id='1258'> +2.9644833e+11 </wgt>
<wgt id='1259'> +2.9903539e+11 </wgt>
<wgt id='1260'> +3.2643119e+11 </wgt>
<wgt id='1261'> +3.1438305e+11 </wgt>
<wgt id='1262'> +2.9213476e+11 </wgt>
<wgt id='1263'> +2.9842238e+11 </wgt>
<wgt id='1264'> +3.0111793e+11 </wgt>
<wgt id='1265'> +2.9679059e+11 </wgt>
<wgt id='1266'> +2.9991499e+11 </wgt>
<wgt id='1267'> +3.3114370e+11 </wgt>
<wgt id='1268'> +2.9217378e+11 </wgt>
<wgt id='1269'> +2.8747930e+11 </wgt>
<wgt id='1270'> +2.9851330e+11 </wgt>
<wgt id='1271'> +2.7336097e+11 </wgt>
<wgt id='1272'> +2.9355236e+11 </wgt>
<wgt id='1273'> +2.9149174e+11 </wgt>
<wgt id='1274'> +2.8710001e+11 </wgt>
<wgt id='1275'> +2.9674120e+11 </wgt>
<wgt id='1276'> +2.9935557e+11 </wgt>
<wgt id='1277'> +2.9446602e+11 </wgt>
<wgt id='1278'> +2.9440740e+11 </wgt>
<wgt id='1279'> +2.8077705e+11 </wgt>
<wgt id='1280'> +2.8924253e+11 </wgt>
<wgt id='1281'> +2.8565813e+11 </wgt>
<wgt id='1282'> +2.9638492e+11 </wgt>
<wgt id='1283'> +3.0274623e+11 </wgt>
<wgt id='1284'> +3.1234133e+11 </wgt>
<wgt id='1285'> +3.0864808e+11 </wgt>
<wgt id='1286'> +3.2961875e+11 </wgt>
<wgt id='1287'> +3.0520780e+11 </wgt>
<wgt id='1288'> +3.2849221e+11 </wgt>
<wgt id='1289'> +3.1388324e+11 </wgt>
<wgt id='1290'> +3.1233571e+11 </wgt>
<wgt id='1291'> +2.7850007e+11 </wgt>
<wgt id='1292'> +3.0050965e+11 </wgt>
<wgt id='1293'> +3.0235386e+11 </wgt>
<wgt id='1294'> +3.1850598e+11 </wgt>
<wgt id='1295'> +3.0573841e+11 </wgt>
<wgt id='1296'> +3.2186451e+11 </wgt>
<wgt id='1297'> +2.9384262e+11 </wgt>
<wgt id='1298'> +2.8829940e+11 </wgt>
<wgt id='1299'> +3.0173046e+11 </wgt>
<wgt id='1300'> +2.8776658e+11 </wgt>
<wgt id='1301'> +2.7994199e+11 </wgt>
<wgt id='1302'> +2.8141964e+11 </wgt>
<wgt id='1303'> +3.0101098e+11 </wgt>
<wgt id='1304'> +3.1558249e+11 </wgt>
<wgt id='1305'> +2.9895761e+11 </wgt>
<wgt id='1306'> +3.0613989e+11 </wgt>
<wgt id='1307'> +2.9681813e+11 </wgt>
<wgt id='1308'> +3.2823469e+11 </wgt>
<wgt id='1309'> +2.9849529e+11 </wgt>
<wgt id='1310'> +3.0310086e+11 </wgt>
<wgt id='1311'> +3.0383862e+11 </wgt>
<wgt id='1312'> +3.0519355e+11 </wgt>
<wgt id='1313'> +3.0030819e+11 </wgt>
<wgt id='1314'> +3.0001169e+11 </wgt>
<wgt id='1315'> +2.8686776e+11 </wgt>
<wgt id='1316'> +2.9979384e+11 </wgt>
<wgt id='1317'> +3.0587454e+11 </wgt>
<wgt id='1318'> +2.9034231e+11 </wgt>
<wgt id='1319'> +3.0176085e+11 </wgt>
<wgt id='1320'> +3.1340199e+11 </wgt>
<wgt id='1321'> +2.9725759e+11 </wgt>
<wgt id='1322'> +3.0190425e+11 </wgt>
<wgt id='1323'> +2.9513182e+11 </wgt>
<wgt id='1324'> +3.0426209e+11 </wgt>
<wgt id='1325'> +3.1207729e+11 </wgt>
<wgt id='1326'> +3.0671381e+11 </wgt>
<wgt id='1327'> +3.0347574e+11 </wgt>
<wgt id='1328'> +2.9941625e+11 </wgt>
<wgt id='1329'> +2.9839662e+11 </wgt>
<wgt id='1330'> +2.8853251e+11 </wgt>
<wgt id='1331'> +3.2132552e+11 </wgt>
<wgt id='1332'> +2.9132774e+11 </wgt>
<wgt id='1333'> +3.0198358e+11 </wgt>
<wgt id='1334'> +3.1548010e+11 </wgt>
<wgt id='1335'> +2.9338058e+11 </wgt>
<wgt id='1336'> +3.0903307e+11 </wgt>
<wgt id='1337'> +3.0913456e+11 </wgt>
<wgt id='1338'> +2.8924747e+11 </wgt>
<wgt id='1339'> +3.1845459e+11 </wgt>
<wgt id='1340'> +3.0431429e+11 </wgt>
<wgt id='1341'> +3.1282701e+11 </wgt>
<wgt id='1342'> +3.0989920e+11 </wgt>
<wgt id='1343'> +3.0989909e+11 </wgt>
<wgt id='1344'> +3.1073574e+11 </wgt>
<wgt id='1345'> +2.7295334e+11 </wgt>
<wgt id='1346'> +3.0234569e+11 </wgt>
<wgt id='1347'> +2.8969284e+11 </wgt>
<wgt id='1348'> +2.8963809e+11 </wgt>
<wgt id='1349'> +2.8835121e+11 </wgt>
<wgt id='1350'> +3.0440414e+11 </wgt>
<wgt id='1351'> +2.9452982e+11 </wgt>
<wgt id='1352'> +3.0250567e+11 </wgt>
<wgt id='1353'> +2.9917864e+11 </wgt>
<wgt id='1354'> +3.0852269e+11 </wgt>
<wgt id='1355'> +2.7624174e+11 </wgt>
<wgt id='1356'> +2.7893579e+11 </wgt>
<wgt id='1357'> +2.7668535e+11 </wgt>
<wgt id='1358'> +2.7414016e+11 </wgt>
<wgt id='1359'> +2.7640593e+11 </wgt>
<wgt id='1360'> +2.7052574e+11 </wgt>
<wgt id='1361'> +2.7563783e+11 </wgt>
<wgt id='1362'> +2.8096208e+11 </wgt>
<wgt id='1363'> +2.7193321e+11 </wgt>
<wgt id='1364'> +2.8146091e+11 </wgt>
<wgt id='1365'> +2.7401932e+11 </wgt>
<wgt id='1366'> +2.7427811e+11 </wgt>
<wgt id='1367'> +2.7673838e+11 </wgt>
<wgt id='1368'> +2.7650133e+11 </wgt>
<wgt id='1369'> +2.7948728e+11 </wgt>
<wgt id='1370'> +2.7412843e+11 </wgt>
<wgt id='1371'> +2.7568191e+11 </wgt>
<wgt id='1372'> +2.7945397e+11 </wgt>
<wgt id='1373'> +2.7954627e+11 </wgt>
<wgt id='1374'> +2.6838111e+11 </wgt>
<wgt id='1375'> +2.7633510e+11 </wgt>
<wgt id='1376'> +2.7615961e+11 </wgt>
<wgt id='1377'> +2.7672013e+11 </wgt>
<wgt id='1378'> +2.7396663e+11 </wgt>
<wgt id='1379'> +2.7472184e+11 </wgt>
<wgt id='1380'> +2.7407702e+11 </wgt>
<wgt id='1381'> +2.8124679e+11 </wgt>
<wgt id='1382'> +2.7553635e+11 </wgt>
<wgt id='1383'> +2.7493414e+11 </wgt>
<wgt id='1384'> +2.7358827e+11 </wgt>
<wgt id='1385'> +2.7327749e+11 </wgt>
<wgt id='1386'> +2.7642383e+11 </wgt>
<wgt id='1387'> +2.7478379e+11 </wgt>
<wgt id='1388'> +2.7189858e+11 </wgt>
<wgt id='1389'> +2.7508294e+11 </wgt>
<wgt id='1390'> +2.7688500e+11 </wgt>
<wgt id='1391'> +2.7419931e+11 </wgt>
<wgt id='1392'> +2.7371653e+11 </wgt>
<wgt id='1393'> +2.7560497e+11 </wgt>
<wgt id='1394'> +2.7441984e+11 </wgt>
<wgt id='1395'> +2.7165239e+11 </wgt>
<wgt id='1396'> +2.7693099e+11 </wgt>
<wgt id='1397'> +2.7702049e+11 </wgt>
<wgt id='1398'> +2.7774952e+11 </wgt>
<wgt id='1399'> +2.7299088e+11 </wgt>
<wgt id='1400'> +2.7236653e+11 </wgt>
<wgt id='1401'> +2.7601233e+11 </wgt>
<wgt id='1402'> +2.7916478e+11 </wgt>
<wgt id='1403'> +2.8146921e+11 </wgt>
<wgt id='1404'> +2.7653757e+11 </wgt>
<wgt id='1405'> +2.8250805e+11 </wgt>
<wgt id='1406'> +2.7724923e+11 </wgt>
<wgt id='1407'> +2.7663672e+11 </wgt>
<wgt id='1408'> +2.8060446e+11 </wgt>
<wgt id='1409'> +2.7309615e+11 </wgt>
<wgt id='1410'> +2.7120632e+11 </wgt>
<wgt id='1411'> +2.7595769e+11 </wgt>
<wgt id='1412'> +2.7454577e+11 </wgt>
<wgt id='1413'> +2.7433616e+11 </wgt>
<wgt id='1414'> +2.7852436e+11 </wgt>
<wgt id='1415'> +2.8014180e+11 </wgt>
<wgt id='1416'> +2.7873495e+11 </wgt>
<wgt id='1417'> +2.7150303e+11 </wgt>
<wgt id='1418'> +2.7687220e+11 </wgt>
<wgt id='1419'> +2.7999831e+11 </wgt>
<wgt id='1420'> +2.7461759e+11 </wgt>
<wgt id='1421'> +2.8236957e+11 </wgt>
<wgt id='1422'> +2.6925934e+11 </wgt>
<wgt id='1423'> +2.8117557e+11 </wgt>
<wgt id='1424'> +2.7740749e+11 </wgt>
<wgt id='1425'> +2.7678416e+11 </wgt>
<wgt id='1426'> +2.7883144e+11 </wgt>
<wgt id='1427'> +2.7584858e+11 </wgt>
<wgt id='1428'> +2.7570869e+11 </wgt>
<wgt id='1429'> +2.7450410e+11 </wgt>
<wgt id='1430'> +2.7209439e+11 </wgt>
<wgt id='1431'> +2.7123737e+11 </wgt>
<wgt id='1432'> +2.7640336e+11 </wgt>
<wgt id='1433'> +2.7515343e+11 </wgt>
<wgt id='1434'> +2.8359028e+11 </wgt>
<wgt id='1435'> +2.7521657e+11 </wgt>
<wgt id='1436'> +2.8002711e+11 </wgt>
<wgt id='1437'> +2.7723210e+11 </wgt>
<wgt id='1438'> +2.7509767e+11 </wgt>
<wgt id='1439'> +2.7903278e+11 </wgt>
<wgt id='1440'> +2.7950720e+11 </wgt>
<wgt id='1441'> +2.7451596e+11 </wgt>
<wgt id='1442'> +2.8206420e+11 </wgt>
<wgt id='1443'> +2.7399302e+11 </wgt>
<wgt id='1444'> +2.7707849e+11 </wgt>
<wgt id='1445'> +2.7790581e+11 </wgt>
<wgt id='1446'> +2.8057014e+11 </wgt>
<wgt id='1447'> +2.7335586e+11 </wgt>
<wgt id='1448'> +2.7866330e+11 </wgt>
<wgt id='1449'> +2.7861338e+11 </wgt>
<wgt id='1450'> +2.7517940e+11 </wgt>
<wgt id='1451'> +2.7761146e+11 </wgt>
<wgt id='1452'> +2.7870065e+11 </wgt>
<wgt id='1453'> +2.7889463e+11 </wgt>
<wgt id='1454'> +2.6883919e+11 </wgt>
<wgt id='1455'> +2.7520930e+11 </wgt>
<wgt id='1456'> +2.7530810e+11 </wgt>
<wgt id='1457'> +2.7518282e+11 </wgt>
<wgt id='1458'> +2.7972727e+11 </wgt>
<wgt id='1459'> +3.0775388e+11 </wgt>
<wgt id='1460'> +3.0293173e+11 </wgt>
<wgt id='1461'> +3.5464014e+11 </wgt>
<wgt id='1462'> +2.9901671e+11 </wgt>
<wgt id='1463'> +2.9925402e+11 </wgt>
<wgt id='1464'> +2.9871236e+11 </wgt>
<wgt id='1465'> +2.9908028e+11 </wgt>
<wgt id='1466'> +2.9895863e+11 </wgt>
<wgt id='1467'> +2.9915973e+11 </wgt>
<wgt id='1468'> +2.9878204e+11 </wgt>
<wgt id='1469'> +2.9857569e+11 </wgt>
<wgt id='1470'> +2.9937490e+11 </wgt>
<wgt id='1471'> +2.9948141e+11 </wgt>
<wgt id='1472'> +2.9853808e+11 </wgt>
<wgt id='1473'> +3.0018146e+11 </wgt>
<wgt id='1474'> +2.9789797e+11 </wgt>
<wgt id='1475'> +3.0012459e+11 </wgt>
<wgt id='1476'> +2.9823127e+11 </wgt>
<wgt id='1477'> +2.9845593e+11 </wgt>
<wgt id='1478'> +3.0032674e+11 </wgt>
<wgt id='1479'> +2.9853604e+11 </wgt>
<wgt id='1480'> +2.9935401e+11 </wgt>
<wgt id='1481'> +2.9855815e+11 </wgt>
<wgt id='1482'> +2.9963572e+11 </wgt>
<wgt id='1483'> +2.9910304e+11 </wgt>
<wgt id='1484'> +2.9889500e+11 </wgt>
<wgt id='1485'> +2.9922314e+11 </wgt>
<wgt id='1486'> +2.9851960e+11 </wgt>
<wgt id='1487'> +2.9928149e+11 </wgt>
<wgt id='1488'> +2.9868512e+11 </wgt>
<wgt id='1489'> +2.9865811e+11 </wgt>
<wgt id='1490'> +2.9998900e+11 </wgt>
<wgt id='1491'> +3.0394755e+11 </wgt>
<wgt id='1492'> +2.9626650e+11 </wgt>
<wgt id='1493'> +2.9547241e+11 </wgt>
<wgt id='1494'> +3.1012885e+11 </wgt>
<wgt id='1495'> +2.9832239e+11 </wgt>
<wgt id='1496'> +2.9976175e+11 </wgt>
<wgt id='1497'> +2.9921594e+11 </wgt>
<wgt id='1498'> +2.9874443e+11 </wgt>
<wgt id='1499'> +3.0094331e+11 </wgt>
<wgt id='1500'> +2.9796338e+11 </wgt>
<wgt id='1501'> +2.9945241e+11 </wgt>
<wgt id='1502'> +2.9786297e+11 </wgt>
<wgt id='1503'> +2.9559985e+11 </wgt>
<wgt id='1504'> +3.0270581e+11 </wgt>
<wgt id='1505'> +2.9993727e+11 </wgt>
<wgt id='1506'> +2.9812381e+11 </wgt>
<wgt id='1507'> +3.0090343e+11 </wgt>
<wgt id='1508'> +2.9696327e+11 </wgt>
<wgt id='1509'> +2.9965000e+11 </wgt>
<wgt id='1510'> +2.9629491e+11 </wgt>
<wgt id='1511'> +3.0017030e+11 </wgt>
<wgt id='1512'> +2.9867131e+11 </wgt>
<wgt id='1513'> +2.9891888e+11 </wgt>
<wgt id='1514'> +2.9912210e+11 </wgt>
<wgt id='1515'> +3.0178881e+11 </wgt>
<wgt id='1516'> +2.9923135e+11 </wgt>
<wgt id='1517'> +2.9860466e+11 </wgt>
<wgt id='1518'> +2.9943017e+11 </wgt>
<wgt id='1519'> +2.9728388e+11 </wgt>
<wgt id='1520'> +3.0024806e+11 </wgt>
<wgt id='1521'> +2.9811846e+11 </wgt>
<wgt id='1522'> +2.9954285e+11 </wgt>
<wgt id='1523'> +3.0030433e+11 </wgt>
<wgt id='1524'> +3.0047045e+11 </wgt>
<wgt id='1525'> +3.0009502e+11 </wgt>
<wgt id='1526'> +3.0000200e+11 </wgt>
<wgt id='1527'> +2.9901671e+11 </wgt>
<wgt id='1528'> +2.9858403e+11 </wgt>
<wgt id='1529'> +2.9898932e+11 </wgt>
<wgt id='1530'> +2.9520189e+11 </wgt>
<wgt id='1531'> +2.9762010e+11 </wgt>
<wgt id='1532'> +2.9552704e+11 </wgt>
<wgt id='1533'> +2.9280614e+11 </wgt>
<wgt id='1534'> +2.9605427e+11 </wgt>
<wgt id='1535'> +3.0014531e+11 </wgt>
<wgt id='1536'> +2.9501536e+11 </wgt>
<wgt id='1537'> +2.9781133e+11 </wgt>
<wgt id='1538'> +2.9436475e+11 </wgt>
<wgt id='1539'> +3.0334999e+11 </wgt>
<wgt id='1540'> +2.9731340e+11 </wgt>
<wgt id='1541'> +2.9844114e+11 </wgt>
<wgt id='1542'> +2.9763286e+11 </wgt>
<wgt id='1543'> +2.9895428e+11 </wgt>
<wgt id='1544'> +2.9575348e+11 </wgt>
<wgt id='1545'> +2.9561347e+11 </wgt>
<wgt id='1546'> +2.9368484e+11 </wgt>
<wgt id='1547'> +2.9993998e+11 </wgt>
<wgt id='1548'> +2.9584783e+11 </wgt>
<wgt id='1549'> +2.9412613e+11 </wgt>
<wgt id='1550'> +2.9872704e+11 </wgt>
<wgt id='1551'> +2.9820646e+11 </wgt>
<wgt id='1552'> +2.9721778e+11 </wgt>
<wgt id='1553'> +3.0016306e+11 </wgt>
<wgt id='1554'> +2.9754964e+11 </wgt>
<wgt id='1555'> +2.9834336e+11 </wgt>
<wgt id='1556'> +2.9996452e+11 </wgt>
<wgt id='1557'> +2.9663018e+11 </wgt>
<wgt id='1558'> +2.9776521e+11 </wgt>
<wgt id='1559'> +2.9534804e+11 </wgt>
<wgt id='1560'> +2.9635072e+11 </wgt>
<wgt id='1561'> +2.9443435e+11 </wgt>
<wgt id='1562'> +2.9623488e+11 </wgt>
<wgt id='1563'> +2.9770728e+11 </wgt>
<wgt id='1564'> +2.9719191e+11 </wgt>
<wgt id='1565'> +2.9978168e+11 </wgt>
<wgt id='1566'> +2.9758272e+11 </wgt>
<wgt id='1567'> +3.0075892e+11 </wgt>
<wgt id='1568'> +2.9753397e+11 </wgt>
<wgt id='1569'> +2.9721729e+11 </wgt>
<wgt id='1570'> +3.0465595e+11 </wgt>
<wgt id='1571'> +2.9751873e+11 </wgt>
<wgt id='1572'> +2.9967191e+11 </wgt>
<wgt id='1573'> +3.0104601e+11 </wgt>
<wgt id='1574'> +2.6095078e+11 </wgt>
<wgt id='1575'> +2.6102103e+11 </wgt>
<wgt id='1576'> +2.6088293e+11 </wgt>
<wgt id='1577'> +2.6096892e+11 </wgt>
<wgt id='1578'> +2.6155208e+11 </wgt>
<wgt id='1579'> +2.6179169e+11 </wgt>
<wgt id='1580'> +2.6156183e+11 </wgt>
<wgt id='1581'> +2.6037568e+11 </wgt>
<wgt id='1582'> +2.6008302e+11 </wgt>
<wgt id='1583'> +2.6050444e+11 </wgt>
<wgt id='1584'> +2.6152343e+11 </wgt>
<wgt id='1585'> +2.6115740e+11 </wgt>
<wgt id='1586'> +2.6000472e+11 </wgt>
<wgt id='1587'> +2.6022283e+11 </wgt>
<wgt id='1588'> +2.5974187e+11 </wgt>
<wgt id='1589'> +2.6067705e+11 </wgt>
<wgt id='1590'> +2.6077838e+11 </wgt>
<wgt id='1591'> +2.6102330e+11 </wgt>
<wgt id='1592'> +2.5993799e+11 </wgt>
<wgt id='1593'> +2.6000597e+11 </wgt>
<wgt id='1594'> +2.6184955e+11 </wgt>
<wgt id='1595'> +2.5861058e+11 </wgt>
<wgt id='1596'> +2.6476903e+11 </wgt>
<wgt id='1597'> +2.6271816e+11 </wgt>
<wgt id='1598'> +2.6290822e+11 </wgt>
<wgt id='1599'> +2.5811219e+11 </wgt>
<wgt id='1600'> +2.6554688e+11 </wgt>
<wgt id='1601'> +2.6309710e+11 </wgt>
<wgt id='1602'> +2.6099630e+11 </wgt>
<wgt id='1603'> +2.7262969e+11 </wgt>
<wgt id='1604'> +2.6105203e+11 </wgt>
</rwgt>
</event>
<event>
 9      1 +2.8343000e+11 1.40000000e+03 7.81738600e-03 7.88881200e-02
       21 -1    0    0  504  503 +0.0000000000e+00 +0.0000000000e+00 +3.4817195725e+02 3.4817195725e+02 0.0000000000e+00 0.0000e+00 1.0000e+00
       21 -1    0    0  503  504 -0.0000000000e+00 -0.0000000000e+00 -1.4073499964e+03 1.4073499964e+03 0.0000000000e+00 0.0000e+00 1.0000e+00
       45  2    1    2    0    0 +0.0000000000e+00 +0.0000000000e+00 -1.0591780392e+03 1.7555219537e+03 1.3999997183e+03 0.0000e+00 0.0000e+00
       25  2    3    3    0    0 +5.5518009670e+02 -4.0292552734e+02 -4.2252132230e+02 8.1530627955e+02 1.2500456523e+02 0.0000e+00 0.0000e+00
       35  2    3    3    0    0 -5.5518009670e+02 +4.0292552734e+02 -6.3665671689e+02 9.4021567413e+02 8.9998991015e+01 0.0000e+00 0.0000e+00
        5  1    5    5  501    0 -3.2983761027e+02 +2.7459848548e+02 -3.5161038144e+02 5.5483762986e+02 4.2140000000e+00 0.0000e+00 -1.0000e+00
       -5  1    5    5    0  501 -2.2534248643e+02 +1.2832704185e+02 -2.8504633545e+02 3.8537804427e+02 4.2140000000e+00 0.0000e+00 -1.0000e+00
        5  1    4    4  502    0 +3.5689918436e+01 +5.2140327501e+00 -2.7602806910e+01 4.5613914113e+01 4.2140000000e+00 0.0000e+00 -1.0000e+00
       -5  1    4    4    0  502 +5.1949017826e+02 -4.0813956009e+02 -3.9491851539e+02 7.6969236544e+02 4.2140000000e+00 0.0000e+00 -1.0000e+00
<mgrwt>
<rscale>  0 0.13999997E+04</rscale>
<asrwt>0</asrwt>
<pdfrwt beam="1">  1       21 0.53564918E-01 0.13999997E+04</pdfrwt>
<pdfrwt beam="2">  1       21 0.21651538E+00 0.13999997E+04</pdfrwt>
<totfact> 0.22983536E+02</totfact>
</mgrwt>
<rwgt>
<wgt id='1001'> +2.8343000e+11 </wgt>
<wgt id='1002'> +2.8392386e+11 </wgt>
<wgt id='1003'> +2.8391973e+11 </wgt>
<wgt id='1004'> +3.1988595e+11 </wgt>
<wgt id='1005'> +2.8343000e+11 </wgt>
<wgt id='1006'> +2.8343000e+11 </wgt>
<wgt id='1007'> +2.8392386e+11 </wgt>
<wgt id='1008'> +2.8391973e+11 </wgt>
<wgt id='1009'> +3.1988595e+11 </wgt>
<wgt id='1010'> +2.8343000e+11 </wgt>
<wgt id='1011'> +2.8343000e+11 </wgt>
<wgt id='1012'> +2.8392386e+11 </wgt>
<wgt id='1013'> +2.8391973e+11 </wgt>
<wgt id='1014'> +3.1988595e+11 </wgt>
<wgt id='1015'> +2.8343000e+11 </wgt>
<wgt id='1016'> +2.5347014e+11 </wgt>
<wgt id='1017'> +2.5388567e+11 </wgt>
<wgt id='1018'> +2.5388220e+11 </wgt>
<wgt id='1019'> +2.8391973e+11 </wgt>
<wgt id='1020'> +2.5347014e+11 </wgt>
<wgt id='1021'> +2.5347014e+11 </wgt>
<wgt id='1022'> +2.5388567e+11 </wgt>
<wgt id='1023'> +2.5388220e+11 </wgt>
<wgt id='1024'> +2.8391973e+11 </wgt>
<wgt id='1025'> +2.5347014e+11 </wgt>
<wgt id='1026'> +2.5347014e+11 </wgt>
<wgt id='1027'> +2.5388567e+11 </wgt>
<wgt id='1028'> +2.5388220e+11 </wgt>
<wgt id='1029'> +2.8391973e+11 </wgt>
<wgt id='1030'> +2.5347014e+11 </wgt>
<wgt id='1031'> +3.1929631e+11 </wgt>
<wgt id='1032'> +3.1989091e+11 </wgt>
<wgt id='1033'> +3.1988595e+11 </wgt>
<wgt id='1034'> +3.6338730e+11 </wgt>
<wgt id='1035'> +3.1929631e+11 </wgt>
<wgt id='1036'> +3.1929631e+11 </wgt>
<wgt id='1037'> +3.1989091e+11 </wgt>
<wgt id='1038'> +3.1988595e+11 </wgt>
<wgt id='1039'> +3.6338730e+11 </wgt>
<wgt id='1040'> +3.1929631e+11 </wgt>
<wgt id='1041'> +3.1929631e+11 </wgt>
<wgt id='1042'> +3.1989091e+11 </wgt>
<wgt id='1043'> +3.1988595e+11 </wgt>
<wgt id='1044'> +3.6338730e+11 </wgt>
<wgt id='1045'> +3.1929631e+11 </wgt>
<wgt id='1046'> +2.8343000e+11 </wgt>
<wgt id='1047'> +2.8343000e+11 </wgt>
<wgt id='1048'> +2.8343000e+11 </wgt>
<wgt id='1049'> +2.8301704e+11 </wgt>
<wgt id='1050'> +2.8317131e+11 </wgt>
<wgt id='1051'> +2.8342701e+11 </wgt>
<wgt id='1052'> +2.8410966e+11 </wgt>
<wgt id='1053'> +2.8153699e+11 </wgt>
<wgt id='1054'> +2.8386922e+11 </wgt>
<wgt id='1055'> +2.8208208e+11 </wgt>
<wgt id='1056'> +2.8200472e+11 </wgt>
<wgt id='1057'> +2.8261341e+11 </wgt>
<wgt id='1058'> +2.8254628e+11 </wgt>
<wgt id='1059'> +2.8560681e+11 </wgt>
<wgt id='1060'> +2.8369715e+11 </wgt>
<wgt id='1061'> +2.8399996e+11 </wgt>
<wgt id='1062'> +2.8427155e+11 </wgt>
<wgt id='1063'> +2.8473341e+11 </wgt>
<wgt id='1064'> +2.8410741e+11 </wgt>
<wgt id='1065'> +2.8488614e+11 </wgt>
<wgt id='1066'> +2.8159431e+11 </wgt>
<wgt id='1067'> +2.8244633e+11 </wgt>
<wgt id='1068'> +2.8396536e+11 </wgt>
<wgt id='1069'> +2.8251583e+11 </wgt>
<wgt id='1070'> +2.8411059e+11 </wgt>
<wgt id='1071'> +2.8265422e+11 </wgt>
<wgt id='1072'> +2.8382676e+11 </wgt>
<wgt id='1073'> +2.8220037e+11 </wgt>
<wgt id='1074'> +2.8239456e+11 </wgt>
<wgt id='1075'> +2.8369789e+11 </wgt>
<wgt id='1076'> +2.8179177e+11 </wgt>
<wgt id='1077'> +2.8202619e+11 </wgt>
<wgt id='1078'> +2.8400217e+11 </wgt>
<wgt id='1079'> +2.8227598e+11 </wgt>
<wgt id='1080'> +2.8294602e+11 </wgt>
<wgt id='1081'> +2.8306937e+11 </wgt>
<wgt id='1082'> +2.8243034e+11 </wgt>
<wgt id='1083'> +2.8449927e+11 </wgt>
<wgt id='1084'> +2.8403827e+11 </wgt>
<wgt id='1085'> +2.8260383e+11 </wgt>
<wgt id='1086'> +2.8361153e+11 </wgt>
<wgt id='1087'> +2.8349994e+11 </wgt>
<wgt id='1088'> +2.8288461e+11 </wgt>
<wgt id='1089'> +2.8247637e+11 </wgt>
<wgt id='1090'> +2.8409953e+11 </wgt>
<wgt id='1091'> +2.8363107e+11 </wgt>
<wgt id='1092'> +2.8361925e+11 </wgt>
<wgt id='1093'> +2.8347538e+11 </wgt>
<wgt id='1094'> +2.8214658e+11 </wgt>
<wgt id='1095'> +2.8369553e+11 </wgt>
<wgt id='1096'> +2.8340247e+11 </wgt>
<wgt id='1097'> +2.8280744e+11 </wgt>
<wgt id='1098'> +2.8317671e+11 </wgt>
<wgt id='1099'> +2.8323783e+11 </wgt>
<wgt id='1100'> +2.8401142e+11 </wgt>
<wgt id='1101'> +2.8346408e+11 </wgt>
<wgt id='1102'> +2.8331771e+11 </wgt>
<wgt id='1103'> +2.8263054e+11 </wgt>
<wgt id='1104'> +2.8335769e+11 </wgt>
<wgt id='1105'> +2.8350955e+11 </wgt>
<wgt id='1106'> +2.8382029e+11 </wgt>
<wgt id='1107'> +2.8369844e+11 </wgt>
<wgt id='1108'> +2.8320632e+11 </wgt>
<wgt id='1109'> +2.8329175e+11 </wgt>
<wgt id='1110'> +2.8362884e+11 </wgt>
<wgt id='1111'> +2.8374308e+11 </wgt>
<wgt id='1112'> +2.8332055e+11 </wgt>
<wgt id='1113'> +2.8378819e+11 </wgt>
<wgt id='1114'> +2.8313330e+11 </wgt>
<wgt id='1115'> +2.8290642e+11 </wgt>
<wgt id='1116'> +2.8416614e+11 </wgt>
<wgt id='1117'> +2.8335423e+11 </wgt>
<wgt id='1118'> +2.8380589e+11 </wgt>
<wgt id='1119'> +2.8299778e+11 </wgt>
<wgt id='1120'> +2.8299442e+11 </wgt>
<wgt id='1121'> +2.8349520e+11 </wgt>
<wgt id='1122'> +2.8302634e+11 </wgt>
<wgt id='1123'> +2.8336662e+11 </wgt>
<wgt id='1124'> +2.8350471e+11 </wgt>
<wgt id='1125'> +2.8362725e+11 </wgt>
<wgt id='1126'> +2.8356617e+11 </wgt>
<wgt id='1127'> +2.8329380e+11 </wgt>
<wgt id='1128'> +2.8334997e+11 </wgt>
<wgt id='1129'> +2.8323963e+11 </wgt>
<wgt id='1130'> +2.8345777e+11 </wgt>
<wgt id='1131'> +2.8399986e+11 </wgt>
<wgt id='1132'> +2.8330578e+11 </wgt>
<wgt id='1133'> +2.8358927e+11 </wgt>
<wgt id='1134'> +2.8340352e+11 </wgt>
<wgt id='1135'> +2.8346372e+11 </wgt>
<wgt id='1136'> +2.8328837e+11 </wgt>
<wgt id='1137'> +2.8319197e+11 </wgt>
<wgt id='1138'> +2.8358145e+11 </wgt>
<wgt id='1139'> +2.8355415e+11 </wgt>
<wgt id='1140'> +2.8371896e+11 </wgt>
<wgt id='1141'> +2.8314902e+11 </wgt>
<wgt id='1142'> +2.8349163e+11 </wgt>
<wgt id='1143'> +2.8363734e+11 </wgt>
<wgt id='1144'> +2.8332564e+11 </wgt>
<wgt id='1145'> +2.8360244e+11 </wgt>
<wgt id='1146'> +2.8351869e+11 </wgt>
<wgt id='1147'> +2.8349426e+11 </wgt>
<wgt id='1148'> +2.8343000e+11 </wgt>
<wgt id='1149'> +2.8343000e+11 </wgt>
<wgt id='1150'> +2.9577573e+11 </wgt>
<wgt id='1151'> +2.7634104e+11 </wgt>
<wgt id='1152'> +2.7159014e+11 </wgt>
<wgt id='1153'> +2.8557031e+11 </wgt>
<wgt id='1154'> +2.7887807e+11 </wgt>
<wgt id='1155'> +2.9681262e+11 </wgt>
<wgt id='1156'> +2.8054253e+11 </wgt>
<wgt id='1157'> +2.7624982e+11 </wgt>
<wgt id='1158'> +2.7712699e+11 </wgt>
<wgt id='1159'> +2.9594882e+11 </wgt>
<wgt id='1160'> +2.8516713e+11 </wgt>
<wgt id='1161'> +2.9305031e+11 </wgt>
<wgt id='1162'> +2.8700674e+11 </wgt>
<wgt id='1163'> +2.8742410e+11 </wgt>
<wgt id='1164'> +2.7459175e+11 </wgt>
<wgt id='1165'> +2.7690790e+11 </wgt>
<wgt id='1166'> +2.8345185e+11 </wgt>
<wgt id='1167'> +2.7857887e+11 </wgt>
<wgt id='1168'> +2.7312840e+11 </wgt>
<wgt id='1169'> +2.7640621e+11 </wgt>
<wgt id='1170'> +2.8479345e+11 </wgt>
<wgt id='1171'> +2.7378480e+11 </wgt>
<wgt id='1172'> +2.7298252e+11 </wgt>
<wgt id='1173'> +2.8632899e+11 </wgt>
<wgt id='1174'> +2.7701352e+11 </wgt>
<wgt id='1175'> +2.7907564e+11 </wgt>
<wgt id='1176'> +2.8784748e+11 </wgt>
<wgt id='1177'> +2.7980418e+11 </wgt>
<wgt id='1178'> +2.8585483e+11 </wgt>
<wgt id='1179'> +2.8792805e+11 </wgt>
<wgt id='1180'> +2.7659462e+11 </wgt>
<wgt id='1181'> +2.9436421e+11 </wgt>
<wgt id='1182'> +2.8137711e+11 </wgt>
<wgt id='1183'> +2.8866597e+11 </wgt>
<wgt id='1184'> +2.7393178e+11 </wgt>
<wgt id='1185'> +2.9032510e+11 </wgt>
<wgt id='1186'> +2.7897018e+11 </wgt>
<wgt id='1187'> +2.8589371e+11 </wgt>
<wgt id='1188'> +2.9192048e+11 </wgt>
<wgt id='1189'> +2.8223543e+11 </wgt>
<wgt id='1190'> +2.8016886e+11 </wgt>
<wgt id='1191'> +2.9085212e+11 </wgt>
<wgt id='1192'> +2.8750573e+11 </wgt>
<wgt id='1193'> +2.8860888e+11 </wgt>
<wgt id='1194'> +2.7768396e+11 </wgt>
<wgt id='1195'> +2.8793185e+11 </wgt>
<wgt id='1196'> +2.9058819e+11 </wgt>
<wgt id='1197'> +2.9055811e+11 </wgt>
<wgt id='1198'> +2.8709719e+11 </wgt>
<wgt id='1199'> +2.8634915e+11 </wgt>
<wgt id='1200'> +2.9183209e+11 </wgt>
<wgt id='1201'> +2.8298622e+11 </wgt>
<wgt id='1202'> +2.8451115e+11 </wgt>
<wgt id='1203'> +2.8560443e+11 </wgt>
<wgt id='1204'> +2.7968543e+11 </wgt>
<wgt id='1205'> +2.8568012e+11 </wgt>
<wgt id='1206'> +2.8119276e+11 </wgt>
<wgt id='1207'> +2.9183950e+11 </wgt>
<wgt id='1208'> +2.7155260e+11 </wgt>
<wgt id='1209'> +2.8561171e+11 </wgt>
<wgt id='1210'> +2.8727680e+11 </wgt>
<wgt id='1211'> +2.7999573e+11 </wgt>
<wgt id='1212'> +2.8273675e+11 </wgt>
<wgt id='1213'> +2.8562121e+11 </wgt>
<wgt id='1214'> +2.7968763e+11 </wgt>
<wgt id='1215'> +2.7851831e+11 </wgt>
<wgt id='1216'> +2.7438125e+11 </wgt>
<wgt id='1217'> +2.8180156e+11 </wgt>
<wgt id='1218'> +2.8500685e+11 </wgt>
<wgt id='1219'> +2.9322840e+11 </wgt>
<wgt id='1220'> +2.8116927e+11 </wgt>
<wgt id='1221'> +2.7673385e+11 </wgt>
<wgt id='1222'> +2.7898604e+11 </wgt>
<wgt id='1223'> +2.7421525e+11 </wgt>
<wgt id='1224'> +2.8210211e+11 </wgt>
<wgt id='1225'> +2.8111324e+11 </wgt>
<wgt id='1226'> +2.8514432e+11 </wgt>
<wgt id='1227'> +2.8108812e+11 </wgt>
<wgt id='1228'> +2.8239476e+11 </wgt>
<wgt id='1229'> +2.9937160e+11 </wgt>
<wgt id='1230'> +2.8750972e+11 </wgt>
<wgt id='1231'> +2.7690790e+11 </wgt>
<wgt id='1232'> +2.8835667e+11 </wgt>
<wgt id='1233'> +2.7689312e+11 </wgt>
<wgt id='1234'> +2.7875375e+11 </wgt>
<wgt id='1235'> +3.0092261e+11 </wgt>
<wgt id='1236'> +2.8014269e+11 </wgt>
<wgt id='1237'> +2.9132210e+11 </wgt>
<wgt id='1238'> +2.7963543e+11 </wgt>
<wgt id='1239'> +2.8669271e+11 </wgt>
<wgt id='1240'> +2.7458878e+11 </wgt>
<wgt id='1241'> +2.8981395e+11 </wgt>
<wgt id='1242'> +2.8114261e+11 </wgt>
<wgt id='1243'> +2.8346352e+11 </wgt>
<wgt id='1244'> +2.9183127e+11 </wgt>
<wgt id='1245'> +2.7390831e+11 </wgt>
<wgt id='1246'> +3.0362134e+11 </wgt>
<wgt id='1247'> +2.8145200e+11 </wgt>
<wgt id='1248'> +2.7368873e+11 </wgt>
<wgt id='1249'> +2.7552043e+11 </wgt>
<wgt id='1250'> +2.9478314e+11 </wgt>
<wgt id='1251'> +3.0407560e+11 </wgt>
<wgt id='1252'> +2.8888527e+11 </wgt>
<wgt id='1253'> +2.9679007e+11 </wgt>
<wgt id='1254'> +2.9099566e+11 </wgt>
<wgt id='1255'> +3.0709797e+11 </wgt>
<wgt id='1256'> +3.0620532e+11 </wgt>
<wgt id='1257'> +3.0294251e+11 </wgt>
<wgt id='1258'> +2.9196747e+11 </wgt>
<wgt id='1259'> +3.1017871e+11 </wgt>
<wgt id='1260'> +3.3175918e+11 </wgt>
<wgt id='1261'> +3.1764653e+11 </wgt>
<wgt id='1262'> +2.9713830e+11 </wgt>
<wgt id='1263'> +3.0166418e+11 </wgt>
<wgt id='1264'> +3.0403967e+11 </wgt>
<wgt id='1265'> +2.9209455e+11 </wgt>
<wgt id='1266'> +3.0669490e+11 </wgt>
<wgt id='1267'> +3.5841020e+11 </wgt>
<wgt id='1268'> +2.8814823e+11 </wgt>
<wgt id='1269'> +2.8681023e+11 </wgt>
<wgt id='1270'> +3.1013872e+11 </wgt>
<wgt id='1271'> +2.6391073e+11 </wgt>
<wgt id='1272'> +2.9508327e+11 </wgt>
<wgt id='1273'> +2.9160546e+11 </wgt>
<wgt id='1274'> +2.8816494e+11 </wgt>
<wgt id='1275'> +2.9266626e+11 </wgt>
<wgt id='1276'> +3.0740656e+11 </wgt>
<wgt id='1277'> +3.0300662e+11 </wgt>
<wgt id='1278'> +3.0250144e+11 </wgt>
<wgt id='1279'> +2.7923558e+11 </wgt>
<wgt id='1280'> +2.8661627e+11 </wgt>
<wgt id='1281'> +2.8585290e+11 </wgt>
<wgt id='1282'> +2.9488567e+11 </wgt>
<wgt id='1283'> +3.1688302e+11 </wgt>
<wgt id='1284'> +3.0622690e+11 </wgt>
<wgt id='1285'> +3.0818274e+11 </wgt>
<wgt id='1286'> +3.3399263e+11 </wgt>
<wgt id='1287'> +3.1793389e+11 </wgt>
<wgt id='1288'> +3.4349193e+11 </wgt>
<wgt id='1289'> +3.1838096e+11 </wgt>
<wgt id='1290'> +3.1426153e+11 </wgt>
<wgt id='1291'> +2.7980088e+11 </wgt>
<wgt id='1292'> +3.0626625e+11 </wgt>
<wgt id='1293'> +3.0471000e+11 </wgt>
<wgt id='1294'> +3.3107067e+11 </wgt>
<wgt id='1295'> +3.1311147e+11 </wgt>
<wgt id='1296'> +3.3773153e+11 </wgt>
<wgt id='1297'> +2.8872833e+11 </wgt>
<wgt id='1298'> +2.9093551e+11 </wgt>
<wgt id='1299'> +3.0675333e+11 </wgt>
<wgt id='1300'> +2.7790696e+11 </wgt>
<wgt id='1301'> +2.8043904e+11 </wgt>
<wgt id='1302'> +2.8188047e+11 </wgt>
<wgt id='1303'> +3.0703127e+11 </wgt>
<wgt id='1304'> +3.3491688e+11 </wgt>
<wgt id='1305'> +2.9843548e+11 </wgt>
<wgt id='1306'> +3.0704912e+11 </wgt>
<wgt id='1307'> +2.8298472e+11 </wgt>
<wgt id='1308'> +3.3432027e+11 </wgt>
<wgt id='1309'> +3.0418790e+11 </wgt>
<wgt id='1310'> +3.0528318e+11 </wgt>
<wgt id='1311'> +2.9562505e+11 </wgt>
<wgt id='1312'> +3.2298613e+11 </wgt>
<wgt id='1313'> +3.0822392e+11 </wgt>
<wgt id='1314'> +2.9028492e+11 </wgt>
<wgt id='1315'> +2.8870508e+11 </wgt>
<wgt id='1316'> +3.0061213e+11 </wgt>
<wgt id='1317'> +3.1960216e+11 </wgt>
<wgt id='1318'> +2.9242382e+11 </wgt>
<wgt id='1319'> +2.9813139e+11 </wgt>
<wgt id='1320'> +3.2128712e+11 </wgt>
<wgt id='1321'> +3.0710067e+11 </wgt>
<wgt id='1322'> +3.1903115e+11 </wgt>
<wgt id='1323'> +2.8497590e+11 </wgt>
<wgt id='1324'> +3.1335725e+11 </wgt>
<wgt id='1325'> +3.1479329e+11 </wgt>
<wgt id='1326'> +3.1197705e+11 </wgt>
<wgt id='1327'> +3.1972909e+11 </wgt>
<wgt id='1328'> +3.0054880e+11 </wgt>
<wgt id='1329'> +2.9795260e+11 </wgt>
<wgt id='1330'> +2.8332798e+11 </wgt>
<wgt id='1331'> +3.2583381e+11 </wgt>
<wgt id='1332'> +3.0333666e+11 </wgt>
<wgt id='1333'> +3.0310949e+11 </wgt>
<wgt id='1334'> +3.2259644e+11 </wgt>
<wgt id='1335'> +2.9121779e+11 </wgt>
<wgt id='1336'> +3.2341304e+11 </wgt>
<wgt id='1337'> +3.1065353e+11 </wgt>
<wgt id='1338'> +2.8637909e+11 </wgt>
<wgt id='1339'> +3.1214820e+11 </wgt>
<wgt id='1340'> +3.1615369e+11 </wgt>
<wgt id='1341'> +3.3536069e+11 </wgt>
<wgt id='1342'> +2.9840871e+11 </wgt>
<wgt id='1343'> +3.0972434e+11 </wgt>
<wgt id='1344'> +3.2231387e+11 </wgt>
<wgt id='1345'> +2.5670851e+11 </wgt>
<wgt id='1346'> +3.0665707e+11 </wgt>
<wgt id='1347'> +2.9683113e+11 </wgt>
<wgt id='1348'> +2.9212273e+11 </wgt>
<wgt id='1349'> +2.8959826e+11 </wgt>
<wgt id='1350'> +3.1625146e+11 </wgt>
<wgt id='1351'> +2.9002645e+11 </wgt>
<wgt id='1352'> +3.0624392e+11 </wgt>
<wgt id='1353'> +3.0396035e+11 </wgt>
<wgt id='1354'> +3.1275283e+11 </wgt>
<wgt id='1355'> +2.8078112e+11 </wgt>
<wgt id='1356'> +2.8328345e+11 </wgt>
<wgt id='1357'> +2.8166437e+11 </wgt>
<wgt id='1358'> +2.7944528e+11 </wgt>
<wgt id='1359'> +2.7927012e+11 </wgt>
<wgt id='1360'> +2.7628222e+11 </wgt>
<wgt id='1361'> +2.7915436e+11 </wgt>
<wgt id='1362'> +2.8950236e+11 </wgt>
<wgt id='1363'> +2.8017183e+11 </wgt>
<wgt id='1364'> +2.8711551e+11 </wgt>
<wgt id='1365'> +2.7869976e+11 </wgt>
<wgt id='1366'> +2.7677317e+11 </wgt>
<wgt id='1367'> +2.7938204e+11 </wgt>
<wgt id='1368'> +2.8187427e+11 </wgt>
<wgt id='1369'> +2.8424960e+11 </wgt>
<wgt id='1370'> +2.7619377e+11 </wgt>
<wgt id='1371'> +2.8071509e+11 </wgt>
<wgt id='1372'> +2.8027477e+11 </wgt>
<wgt id='1373'> +2.8447859e+11 </wgt>
<wgt id='1374'> +2.7511003e+11 </wgt>
<wgt id='1375'> +2.8258953e+11 </wgt>
<wgt id='1376'> +2.7977825e+11 </wgt>
<wgt id='1377'> +2.8093020e+11 </wgt>
<wgt id='1378'> +2.8254155e+11 </wgt>
<wgt id='1379'> +2.7906004e+11 </wgt>
<wgt id='1380'> +2.7819312e+11 </wgt>
<wgt id='1381'> +2.8480719e+11 </wgt>
<wgt id='1382'> +2.7895668e+11 </wgt>
<wgt id='1383'> +2.7755427e+11 </wgt>
<wgt id='1384'> +2.7540594e+11 </wgt>
<wgt id='1385'> +2.7515340e+11 </wgt>
<wgt id='1386'> +2.7772464e+11 </wgt>
<wgt id='1387'> +2.7898870e+11 </wgt>
<wgt id='1388'> +2.7629237e+11 </wgt>
<wgt id='1389'> +2.7891994e+11 </wgt>
<wgt id='1390'> +2.8389219e+11 </wgt>
<wgt id='1391'> +2.8075758e+11 </wgt>
<wgt id='1392'> +2.7590560e+11 </wgt>
<wgt id='1393'> +2.8282740e+11 </wgt>
<wgt id='1394'> +2.8055689e+11 </wgt>
<wgt id='1395'> +2.7533013e+11 </wgt>
<wgt id='1396'> +2.8103998e+11 </wgt>
<wgt id='1397'> +2.8111294e+11 </wgt>
<wgt id='1398'> +2.8565814e+11 </wgt>
<wgt id='1399'> +2.7909552e+11 </wgt>
<wgt id='1400'> +2.7505676e+11 </wgt>
<wgt id='1401'> +2.8167477e+11 </wgt>
<wgt id='1402'> +2.8301317e+11 </wgt>
<wgt id='1403'> +2.9083484e+11 </wgt>
<wgt id='1404'> +2.8497965e+11 </wgt>
<wgt id='1405'> +2.8873005e+11 </wgt>
<wgt id='1406'> +2.8489072e+11 </wgt>
<wgt id='1407'> +2.8209678e+11 </wgt>
<wgt id='1408'> +2.8910750e+11 </wgt>
<wgt id='1409'> +2.7514879e+11 </wgt>
<wgt id='1410'> +2.7271648e+11 </wgt>
<wgt id='1411'> +2.8049394e+11 </wgt>
<wgt id='1412'> +2.8059285e+11 </wgt>
<wgt id='1413'> +2.8456937e+11 </wgt>
<wgt id='1414'> +2.8333202e+11 </wgt>
<wgt id='1415'> +2.7922184e+11 </wgt>
<wgt id='1416'> +2.8158232e+11 </wgt>
<wgt id='1417'> +2.7879755e+11 </wgt>
<wgt id='1418'> +2.7935940e+11 </wgt>
<wgt id='1419'> +2.8393976e+11 </wgt>
<wgt id='1420'> +2.7470367e+11 </wgt>
<wgt id='1421'> +2.8779034e+11 </wgt>
<wgt id='1422'> +2.7338025e+11 </wgt>
<wgt id='1423'> +2.8434320e+11 </wgt>
<wgt id='1424'> +2.8079643e+11 </wgt>
<wgt id='1425'> +2.8099343e+11 </wgt>
<wgt id='1426'> +2.8321396e+11 </wgt>
<wgt id='1427'> +2.7891425e+11 </wgt>
<wgt id='1428'> +2.7863455e+11 </wgt>
<wgt id='1429'> +2.8197090e+11 </wgt>
<wgt id='1430'> +2.7750485e+11 </wgt>
<wgt id='1431'> +2.7780129e+11 </wgt>
<wgt id='1432'> +2.7643588e+11 </wgt>
<wgt id='1433'> +2.7532948e+11 </wgt>
<wgt id='1434'> +2.8740536e+11 </wgt>
<wgt id='1435'> +2.8028191e+11 </wgt>
<wgt id='1436'> +2.8478162e+11 </wgt>
<wgt id='1437'> +2.7896984e+11 </wgt>
<wgt id='1438'> +2.8063303e+11 </wgt>
<wgt id='1439'> +2.8805889e+11 </wgt>
<wgt id='1440'> +2.8117361e+11 </wgt>
<wgt id='1441'> +2.7650712e+11 </wgt>
<wgt id='1442'> +2.8297693e+11 </wgt>
<wgt id='1443'> +2.7678382e+11 </wgt>
<wgt id='1444'> +2.8754089e+11 </wgt>
<wgt id='1445'> +2.7945421e+11 </wgt>
<wgt id='1446'> +2.8986444e+11 </wgt>
<wgt id='1447'> +2.8091027e+11 </wgt>
<wgt id='1448'> +2.8348551e+11 </wgt>
<wgt id='1449'> +2.8386589e+11 </wgt>
<wgt id='1450'> +2.8001902e+11 </wgt>
<wgt id='1451'> +2.8062080e+11 </wgt>
<wgt id='1452'> +2.8296699e+11 </wgt>
<wgt id='1453'> +2.8234088e+11 </wgt>
<wgt id='1454'> +2.7173963e+11 </wgt>
<wgt id='1455'> +2.7913728e+11 </wgt>
<wgt id='1456'> +2.7906890e+11 </wgt>
<wgt id='1457'> +2.8061239e+11 </wgt>
<wgt id='1458'> +2.8780840e+11 </wgt>
<wgt id='1459'> +3.1327641e+11 </wgt>
<wgt id='1460'> +3.0796632e+11 </wgt>
<wgt id='1461'> +3.6906180e+11 </wgt>
<wgt id='1462'> +3.0185291e+11 </wgt>
<wgt id='1463'> +3.0207155e+11 </wgt>
<wgt id='1464'> +3.0157251e+11 </wgt>
<wgt id='1465'> +3.0192119e+11 </wgt>
<wgt id='1466'> +3.0179055e+11 </wgt>
<wgt id='1467'> +3.0196279e+11 </wgt>
<wgt id='1468'> +3.0167262e+11 </wgt>
<wgt id='1469'> +3.0142187e+11 </wgt>
<wgt id='1470'> +3.0220297e+11 </wgt>
<wgt id='1471'> +3.0229969e+11 </wgt>
<wgt id='1472'> +3.0139272e+11 </wgt>
<wgt id='1473'> +3.0305859e+11 </wgt>
<wgt id='1474'> +3.0069484e+11 </wgt>
<wgt id='1475'> +3.0299362e+11 </wgt>
<wgt id='1476'> +3.0104433e+11 </wgt>
<wgt id='1477'> +3.0130766e+11 </wgt>
<wgt id='1478'> +3.0312691e+11 </wgt>
<wgt id='1479'> +3.0154600e+11 </wgt>
<wgt id='1480'> +3.0207248e+11 </wgt>
<wgt id='1481'> +3.0127632e+11 </wgt>
<wgt id='1482'> +3.0263326e+11 </wgt>
<wgt id='1483'> +3.0190707e+11 </wgt>
<wgt id='1484'> +3.0178033e+11 </wgt>
<wgt id='1485'> +3.0206285e+11 </wgt>
<wgt id='1486'> +3.0134725e+11 </wgt>
<wgt id='1487'> +3.0213975e+11 </wgt>
<wgt id='1488'> +3.0149487e+11 </wgt>
<wgt id='1489'> +3.0147395e+11 </wgt>
<wgt id='1490'> +3.0288076e+11 </wgt>
<wgt id='1491'> +3.0692185e+11 </wgt>
<wgt id='1492'> +2.9902929e+11 </wgt>
<wgt id='1493'> +2.9815488e+11 </wgt>
<wgt id='1494'> +3.1345270e+11 </wgt>
<wgt id='1495'> +3.0099987e+11 </wgt>
<wgt id='1496'> +3.0276919e+11 </wgt>
<wgt id='1497'> +3.0206604e+11 </wgt>
<wgt id='1498'> +3.0156196e+11 </wgt>
<wgt id='1499'> +3.0397893e+11 </wgt>
<wgt id='1500'> +3.0069243e+11 </wgt>
<wgt id='1501'> +3.0218409e+11 </wgt>
<wgt id='1502'> +3.0098345e+11 </wgt>
<wgt id='1503'> +2.9746829e+11 </wgt>
<wgt id='1504'> +3.0676795e+11 </wgt>
<wgt id='1505'> +3.0251014e+11 </wgt>
<wgt id='1506'> +3.0120303e+11 </wgt>
<wgt id='1507'> +3.0532248e+11 </wgt>
<wgt id='1508'> +2.9628729e+11 </wgt>
<wgt id='1509'> +3.0265654e+11 </wgt>
<wgt id='1510'> +2.9838655e+11 </wgt>
<wgt id='1511'> +3.0308945e+11 </wgt>
<wgt id='1512'> +3.0149151e+11 </wgt>
<wgt id='1513'> +3.0166914e+11 </wgt>
<wgt id='1514'> +3.0207202e+11 </wgt>
<wgt id='1515'> +3.0572935e+11 </wgt>
<wgt id='1516'> +3.0135362e+11 </wgt>
<wgt id='1517'> +3.0130955e+11 </wgt>
<wgt id='1518'> +3.0261239e+11 </wgt>
<wgt id='1519'> +2.9983261e+11 </wgt>
<wgt id='1520'> +3.0328355e+11 </wgt>
<wgt id='1521'> +3.0058513e+11 </wgt>
<wgt id='1522'> +3.0256605e+11 </wgt>
<wgt id='1523'> +3.0303958e+11 </wgt>
<wgt id='1524'> +3.0353640e+11 </wgt>
<wgt id='1525'> +3.0254754e+11 </wgt>
<wgt id='1526'> +3.0338210e+11 </wgt>
<wgt id='1527'> +3.0185291e+11 </wgt>
<wgt id='1528'> +3.0065072e+11 </wgt>
<wgt id='1529'> +3.0278739e+11 </wgt>
<wgt id='1530'> +2.9751946e+11 </wgt>
<wgt id='1531'> +3.0544179e+11 </wgt>
<wgt id='1532'> +3.0501907e+11 </wgt>
<wgt id='1533'> +2.9982991e+11 </wgt>
<wgt id='1534'> +3.0375941e+11 </wgt>
<wgt id='1535'> +3.0875418e+11 </wgt>
<wgt id='1536'> +3.0209641e+11 </wgt>
<wgt id='1537'> +3.0725438e+11 </wgt>
<wgt id='1538'> +3.0136023e+11 </wgt>
<wgt id='1539'> +3.1055520e+11 </wgt>
<wgt id='1540'> +3.0671035e+11 </wgt>
<wgt id='1541'> +3.0716469e+11 </wgt>
<wgt id='1542'> +3.0561272e+11 </wgt>
<wgt id='1543'> +3.0732452e+11 </wgt>
<wgt id='1544'> +3.0377616e+11 </wgt>
<wgt id='1545'> +3.0341781e+11 </wgt>
<wgt id='1546'> +3.0166713e+11 </wgt>
<wgt id='1547'> +3.0772674e+11 </wgt>
<wgt id='1548'> +3.0426293e+11 </wgt>
<wgt id='1549'> +3.0188721e+11 </wgt>
<wgt id='1550'> +3.0767078e+11 </wgt>
<wgt id='1551'> +3.0605592e+11 </wgt>
<wgt id='1552'> +3.0557732e+11 </wgt>
<wgt id='1553'> +3.1050600e+11 </wgt>
<wgt id='1554'> +3.0570198e+11 </wgt>
<wgt id='1555'> +3.0645353e+11 </wgt>
<wgt id='1556'> +3.0747294e+11 </wgt>
<wgt id='1557'> +3.0508826e+11 </wgt>
<wgt id='1558'> +3.0580892e+11 </wgt>
<wgt id='1559'> +3.0279237e+11 </wgt>
<wgt id='1560'> +3.0437844e+11 </wgt>
<wgt id='1561'> +3.0348073e+11 </wgt>
<wgt id='1562'> +3.0360180e+11 </wgt>
<wgt id='1563'> +3.0572604e+11 </wgt>
<wgt id='1564'> +3.0516346e+11 </wgt>
<wgt id='1565'> +3.0847006e+11 </wgt>
<wgt id='1566'> +3.0543926e+11 </wgt>
<wgt id='1567'> +3.0655953e+11 </wgt>
<wgt id='1568'> +3.0528710e+11 </wgt>
<wgt id='1569'> +3.0479373e+11 </wgt>
<wgt id='1570'> +3.1222264e+11 </wgt>
<wgt id='1571'> +3.0552832e+11 </wgt>
<wgt id='1572'> +3.0711787e+11 </wgt>
<wgt id='1573'> +3.0986638e+11 </wgt>
<wgt id='1574'> +2.5332227e+11 </wgt>
<wgt id='1575'> +2.5338842e+11 </wgt>
<wgt id='1576'> +2.5325366e+11 </wgt>
<wgt id='1577'> +2.5334017e+11 </wgt>
<wgt id='1578'> +2.5390645e+11 </wgt>
<wgt id='1579'> +2.5410986e+11 </wgt>
<wgt id='1580'> +2.5387513e+11 </wgt>
<wgt id='1581'> +2.5286336e+11 </wgt>
<wgt id='1582'> +2.5259933e+11 </wgt>
<wgt id='1583'> +2.5285819e+11 </wgt>
<wgt id='1584'> +2.5388485e+11 </wgt>
<wgt id='1585'> +2.5357970e+11 </wgt>
<wgt id='1586'> +2.5254427e+11 </wgt>
<wgt id='1587'> +2.5268295e+11 </wgt>
<wgt id='1588'> +2.5224749e+11 </wgt>
<wgt id='1589'> +2.5299321e+11 </wgt>
<wgt id='1590'> +2.5317390e+11 </wgt>
<wgt id='1591'> +2.5340403e+11 </wgt>
<wgt id='1592'> +2.5235173e+11 </wgt>
<wgt id='1593'> +2.5220812e+11 </wgt>
<wgt id='1594'> +2.5440822e+11 </wgt>
<wgt id='1595'> +2.5075806e+11 </wgt>
<wgt id='1596'> +2.5764252e+11 </wgt>
<wgt id='1597'> +2.5514684e+11 </wgt>
<wgt id='1598'> +2.5525866e+11 </wgt>
<wgt id='1599'> +2.5027599e+11 </wgt>
<wgt id='1600'> +2.5828850e+11 </wgt>
<wgt id='1601'> +2.5548393e+11 </wgt>
<wgt id='1602'> +2.5338290e+11 </wgt>
<wgt id='1603'> +2.6766382e+11 </wgt>
<wgt id='1604'> +2.5350954e+11 </wgt>
</rwgt>
</event>
<event>
 9      1 +2.8343000e+11 1.40000000e+03 7.81738600e-03 7.88881100e-02
       21 -1    0    0  504  503 +0.0000000000e+00 +0.0000000000e+00 +1.7597120186e+03 1.7597120186e+03 0.0000000000e+00 0.0000e+00 1.0000e+00
       21 -1    0    0  503  504 -0.0000000000e+00 -0.0000000000e+00 -2.7845484648e+02 2.7845484648e+02 0.0000000000e+00 0.0000e+00 1.0000e+00
       45  2    1    2    0    0 +0.0000000000e+00 -1.1368683772e-13 +1.4812571722e+03 2.0381668651e+03 1.4000004857e+03 0.0000e+00 0.0000e+00
       25  2    3    3    0    0 -2.9597386198e+02 -6.2400997980e+02 +6.9397217831e+02 9.8702156376e+02 1.2500080480e+02 0.0000e+00 0.0000e+00
       35  2    3    3    0    0 +2.9597386198e+02 +6.2400997980e+02 +7.8728499386e+02 1.0511453014e+03 8.9998895164e+01 0.0000e+00 0.0000e+00
        5  1    5    5  501    0 +6.4600415766e+00 -8.8834595236e-01 +8.8472937577e+00 1.1770883507e+01 4.2140000000e+00 0.0000e+00 1.0000e+00
       -5  1    5    5    0  501 +2.8951382040e+02 +6.2489832576e+02 +7.7843770010e+02 1.0393744178e+03 4.2140000000e+00 0.0000e+00 1.0000e+00
        5  1    4    4  502    0 -2.8757239932e+02 -5.8731613426e+02 +6.8703891635e+02 9.4851376205e+02 4.2140000000e+00 0.0000e+00 -1.0000e+00
       -5  1    4    4    0  502 -8.4014626540e+00 -3.6693845544e+01 +6.9332619514e+00 3.8507801713e+01 4.2140000000e+00 0.0000e+00 -1.0000e+00
<mgrwt>
<rscale>  0 0.14000005E+04</rscale>
<asrwt>0</asrwt>
<pdfrwt beam="1">  1       21 0.27072492E+00 0.14000005E+04</pdfrwt>
<pdfrwt beam="2">  1       21 0.42839208E-01 0.14000005E+04</pdfrwt>
<totfact> 0.15836414E+02</totfact>
</mgrwt>
<rwgt>
<wgt id='1001'> +2.8343000e+11 </wgt>
<wgt id='1002'> +2.8386509e+11 </wgt>
<wgt id='1003'> +2.8383699e+11 </wgt>
<wgt id='1004'> +3.2099890e+11 </wgt>
<wgt id='1005'> +2.8343000e+11 </wgt>
<wgt id='1006'> +2.8343000e+11 </wgt>
<wgt id='1007'> +2.8386509e+11 </wgt>
<wgt id='1008'> +2.8383699e+11 </wgt>
<wgt id='1009'> +3.2099890e+11 </wgt>
<wgt id='1010'> +2.8343000e+11 </wgt>
<wgt id='1011'> +2.8343000e+11 </wgt>
<wgt id='1012'> +2.8386509e+11 </wgt>
<wgt id='1013'> +2.8383699e+11 </wgt>
<wgt id='1014'> +3.2099890e+11 </wgt>
<wgt id='1015'> +2.8343000e+11 </wgt>
<wgt id='1016'> +2.5254613e+11 </wgt>
<wgt id='1017'> +2.5291183e+11 </wgt>
<wgt id='1018'> +2.5288821e+11 </wgt>
<wgt id='1019'> +2.8383699e+11 </wgt>
<wgt id='1020'> +2.5254613e+11 </wgt>
<wgt id='1021'> +2.5254613e+11 </wgt>
<wgt id='1022'> +2.5291183e+11 </wgt>
<wgt id='1023'> +2.5288821e+11 </wgt>
<wgt id='1024'> +2.8383699e+11 </wgt>
<wgt id='1025'> +2.5254613e+11 </wgt>
<wgt id='1026'> +2.5254613e+11 </wgt>
<wgt id='1027'> +2.5291183e+11 </wgt>
<wgt id='1028'> +2.5288821e+11 </wgt>
<wgt id='1029'> +2.8383699e+11 </wgt>
<wgt id='1030'> +2.5254613e+11 </wgt>
<wgt id='1031'> +3.2050714e+11 </wgt>
<wgt id='1032'> +3.2103285e+11 </wgt>
<wgt id='1033'> +3.2099890e+11 </wgt>
<wgt id='1034'> +3.6602172e+11 </wgt>
<wgt id='1035'> +3.2050714e+11 </wgt>
<wgt id='1036'> +3.2050714e+11 </wgt>
<wgt id='1037'> +3.2103285e+11 </wgt>
<wgt id='1038'> +3.2099890e+11 </wgt>
<wgt id='1039'> +3.6602172e+11 </wgt>
<wgt id='1040'> +3.2050714e+11 </wgt>
<wgt id='1041'> +3.2050714e+11 </wgt>
<wgt id='1042'> +3.2103285e+11 </wgt>
<wgt id='1043'> +3.2099890e+11 </wgt>
<wgt id='1044'> +3.6602172e+11 </wgt>
<wgt id='1045'> +3.2050714e+11 </wgt>
<wgt id='1046'> +2.8343000e+11 </wgt>
<wgt id='1047'> +2.8343000e+11 </wgt>
<wgt id='1048'> +2.8343000e+11 </wgt>
<wgt id='1049'> +2.8321366e+11 </wgt>
<wgt id='1050'> +2.8284973e+11 </wgt>
<wgt id='1051'> +2.8357434e+11 </wgt>
<wgt id='1052'> +2.8370585e+11 </wgt>
<wgt id='1053'> +2.8155414e+11 </wgt>
<wgt id='1054'> +2.8468224e+11 </wgt>
<wgt id='1055'> +2.8197208e+11 </wgt>
<wgt id='1056'> +2.8158788e+11 </wgt>
<wgt id='1057'> +2.8219325e+11 </wgt>
<wgt id='1058'> +2.8275353e+11 </wgt>
<wgt id='1059'> +2.8581745e+11 </wgt>
<wgt id='1060'> +2.8328593e+11 </wgt>
<wgt id='1061'> +2.8441993e+11 </wgt>
<wgt id='1062'> +2.8456414e+11 </wgt>
<wgt id='1063'> +2.8471615e+11 </wgt>
<wgt id='1064'> +2.8456358e+11 </wgt>
<wgt id='1065'> +2.8535436e+11 </wgt>
<wgt id='1066'> +2.8215736e+11 </wgt>
<wgt id='1067'> +2.8207481e+11 </wgt>
<wgt id='1068'> +2.8414314e+11 </wgt>
<wgt id='1069'> +2.8242047e+11 </wgt>
<wgt id='1070'> +2.8365072e+11 </wgt>
<wgt id='1071'> +2.8385543e+11 </wgt>
<wgt id='1072'> +2.8343262e+11 </wgt>
<wgt id='1073'> +2.8233045e+11 </wgt>
<wgt id='1074'> +2.8254603e+11 </wgt>
<wgt id='1075'> +2.8210933e+11 </wgt>
<wgt id='1076'> +2.8307571e+11 </wgt>
<wgt id='1077'> +2.8125780e+11 </wgt>
<wgt id='1078'> +2.8289702e+11 </wgt>
<wgt id='1079'> +2.8257972e+11 </wgt>
<wgt id='1080'> +2.8256857e+11 </wgt>
<wgt id='1081'> +2.8311187e+11 </wgt>
<wgt id='1082'> +2.8345527e+11 </wgt>
<wgt id='1083'> +2.8423824e+11 </wgt>
<wgt id='1084'> +2.8390865e+11 </wgt>
<wgt id='1085'> +2.8206736e+11 </wgt>
<wgt id='1086'> +2.8494344e+11 </wgt>
<wgt id='1087'> +2.8385352e+11 </wgt>
<wgt id='1088'> +2.8258757e+11 </wgt>
<wgt id='1089'> +2.8264204e+11 </wgt>
<wgt id='1090'> +2.8429016e+11 </wgt>
<wgt id='1091'> +2.8380402e+11 </wgt>
<wgt id='1092'> +2.8353858e+11 </wgt>
<wgt id='1093'> +2.8331758e+11 </wgt>
<wgt id='1094'> +2.8179162e+11 </wgt>
<wgt id='1095'> +2.8397092e+11 </wgt>
<wgt id='1096'> +2.8349321e+11 </wgt>
<wgt id='1097'> +2.8256654e+11 </wgt>
<wgt id='1098'> +2.8306206e+11 </wgt>
<wgt id='1099'> +2.8336693e+11 </wgt>
<wgt id='1100'> +2.8386583e+11 </wgt>
<wgt id='1101'> +2.8338063e+11 </wgt>
<wgt id='1102'> +2.8326291e+11 </wgt>
<wgt id='1103'> +2.8207474e+11 </wgt>
<wgt id='1104'> +2.8365164e+11 </wgt>
<wgt id='1105'> +2.8356251e+11 </wgt>
<wgt id='1106'> +2.8394414e+11 </wgt>
<wgt id='1107'> +2.8391459e+11 </wgt>
<wgt id='1108'> +2.8312343e+11 </wgt>
<wgt id='1109'> +2.8350469e+11 </wgt>
<wgt id='1110'> +2.8352265e+11 </wgt>
<wgt id='1111'> +2.8416037e+11 </wgt>
<wgt id='1112'> +2.8312680e+11 </wgt>
<wgt id='1113'> +2.8378154e+11 </wgt>
<wgt id='1114'> +2.8311568e+11 </wgt>
<wgt id='1115'> +2.8256005e+11 </wgt>
<wgt id='1116'> +2.8451060e+11 </wgt>
<wgt id='1117'> +2.8326558e+11 </wgt>
<wgt id='1118'> +2.8404800e+11 </wgt>
<wgt id='1119'> +2.8271495e+11 </wgt>
<wgt id='1120'> +2.8265983e+11 </wgt>
<wgt id='1121'> +2.8342822e+11 </wgt>
<wgt id='1122'> +2.8276387e+11 </wgt>
<wgt id='1123'> +2.8336176e+11 </wgt>
<wgt id='1124'> +2.8365403e+11 </wgt>
<wgt id='1125'> +2.8364473e+11 </wgt>
<wgt id='1126'> +2.8357951e+11 </wgt>
<wgt id='1127'> +2.8336345e+11 </wgt>
<wgt id='1128'> +2.8331015e+11 </wgt>
<wgt id='1129'> +2.8308965e+11 </wgt>
<wgt id='1130'> +2.8346242e+11 </wgt>
<wgt id='1131'> +2.8428816e+11 </wgt>
<wgt id='1132'> +2.8322246e+11 </wgt>
<wgt id='1133'> +2.8367565e+11 </wgt>
<wgt id='1134'> +2.8331743e+11 </wgt>
<wgt id='1135'> +2.8349519e+11 </wgt>
<wgt id='1136'> +2.8319201e+11 </wgt>
<wgt id='1137'> +2.8306841e+11 </wgt>
<wgt id='1138'> +2.8361665e+11 </wgt>
<wgt id='1139'> +2.8370633e+11 </wgt>
<wgt id='1140'> +2.8379824e+11 </wgt>
<wgt id='1141'> +2.8302551e+11 </wgt>
<wgt id='1142'> +2.8346670e+11 </wgt>
<wgt id='1143'> +2.8372554e+11 </wgt>
<wgt id='1144'> +2.8332995e+11 </wgt>
<wgt id='1145'> +2.8366053e+11 </wgt>
<wgt id='1146'> +2.8360612e+11 </wgt>
<wgt id='1147'> +2.8352367e+11 </wgt>
<wgt id='1148'> +2.8343000e+11 </wgt>
<wgt id='1149'> +2.8343000e+11 </wgt>
<wgt id='1150'> +2.8693606e+11 </wgt>
<wgt id='1151'> +2.7765529e+11 </wgt>
<wgt id='1152'> +2.7609547e+11 </wgt>
<wgt id='1153'> +2.8540403e+11 </wgt>
<wgt id='1154'> +2.7383254e+11 </wgt>
<wgt id='1155'> +3.0038517e+11 </wgt>
<wgt id='1156'> +2.8550383e+11 </wgt>
<wgt id='1157'> +2.8041312e+11 </wgt>
<wgt id='1158'> +2.7845592e+11 </wgt>
<wgt id='1159'> +2.8970596e+11 </wgt>
<wgt id='1160'> +2.7723495e+11 </wgt>
<wgt id='1161'> +2.9901024e+11 </wgt>
<wgt id='1162'> +2.8518462e+11 </wgt>
<wgt id='1163'> +2.8819327e+11 </wgt>
<wgt id='1164'> +2.7155621e+11 </wgt>
<wgt id='1165'> +2.7305971e+11 </wgt>
<wgt id='1166'> +2.8343404e+11 </wgt>
<wgt id='1167'> +2.8000513e+11 </wgt>
<wgt id='1168'> +2.6957616e+11 </wgt>
<wgt id='1169'> +2.7443493e+11 </wgt>
<wgt id='1170'> +2.8368254e+11 </wgt>
<wgt id='1171'> +2.7409569e+11 </wgt>
<wgt id='1172'> +2.6910476e+11 </wgt>
<wgt id='1173'> +2.8874294e+11 </wgt>
<wgt id='1174'> +2.7957306e+11 </wgt>
<wgt id='1175'> +2.7775356e+11 </wgt>
<wgt id='1176'> +2.8921510e+11 </wgt>
<wgt id='1177'> +2.8583341e+11 </wgt>
<wgt id='1178'> +2.8582276e+11 </wgt>
<wgt id='1179'> +2.9458465e+11 </wgt>
<wgt id='1180'> +2.8181319e+11 </wgt>
<wgt id='1181'> +2.8673677e+11 </wgt>
<wgt id='1182'> +2.8397265e+11 </wgt>
<wgt id='1183'> +2.9113982e+11 </wgt>
<wgt id='1184'> +2.6415220e+11 </wgt>
<wgt id='1185'> +2.9174921e+11 </wgt>
<wgt id='1186'> +2.7748914e+11 </wgt>
<wgt id='1187'> +2.9202105e+11 </wgt>
<wgt id='1188'> +2.9575385e+11 </wgt>
<wgt id='1189'> +2.8722242e+11 </wgt>
<wgt id='1190'> +2.8202188e+11 </wgt>
<wgt id='1191'> +2.9726291e+11 </wgt>
<wgt id='1192'> +2.8705286e+11 </wgt>
<wgt id='1193'> +2.8718154e+11 </wgt>
<wgt id='1194'> +2.7363993e+11 </wgt>
<wgt id='1195'> +2.9241864e+11 </wgt>
<wgt id='1196'> +2.8548728e+11 </wgt>
<wgt id='1197'> +2.9083004e+11 </wgt>
<wgt id='1198'> +2.8194228e+11 </wgt>
<wgt id='1199'> +2.8325800e+11 </wgt>
<wgt id='1200'> +2.9210437e+11 </wgt>
<wgt id='1201'> +2.8820303e+11 </wgt>
<wgt id='1202'> +2.8080719e+11 </wgt>
<wgt id='1203'> +2.8906571e+11 </wgt>
<wgt id='1204'> +2.7611767e+11 </wgt>
<wgt id='1205'> +2.9069488e+11 </wgt>
<wgt id='1206'> +2.7937788e+11 </wgt>
<wgt id='1207'> +2.9546962e+11 </wgt>
<wgt id='1208'> +2.7641140e+11 </wgt>
<wgt id='1209'> +2.8387437e+11 </wgt>
<wgt id='1210'> +2.8403697e+11 </wgt>
<wgt id='1211'> +2.8138243e+11 </wgt>
<wgt id='1212'> +2.7796126e+11 </wgt>
<wgt id='1213'> +2.8120407e+11 </wgt>
<wgt id='1214'> +2.8015303e+11 </wgt>
<wgt id='1215'> +2.8333713e+11 </wgt>
<wgt id='1216'> +2.7217843e+11 </wgt>
<wgt id='1217'> +2.8581582e+11 </wgt>
<wgt id='1218'> +2.8192143e+11 </wgt>
<wgt id='1219'> +2.8922173e+11 </wgt>
<wgt id='1220'> +2.7945758e+11 </wgt>
<wgt id='1221'> +2.7209975e+11 </wgt>
<wgt id='1222'> +2.7926772e+11 </wgt>
<wgt id='1223'> +2.7500636e+11 </wgt>
<wgt id='1224'> +2.8117747e+11 </wgt>
<wgt id='1225'> +2.7760388e+11 </wgt>
<wgt id='1226'> +2.8447500e+11 </wgt>
<wgt id='1227'> +2.7385354e+11 </wgt>
<wgt id='1228'> +2.7800807e+11 </wgt>
<wgt id='1229'> +2.9679090e+11 </wgt>
<wgt id='1230'> +2.8585145e+11 </wgt>
<wgt id='1231'> +2.7305971e+11 </wgt>
<wgt id='1232'> +2.9088708e+11 </wgt>
<wgt id='1233'> +2.7907808e+11 </wgt>
<wgt id='1234'> +2.7978479e+11 </wgt>
<wgt id='1235'> +3.0491148e+11 </wgt>
<wgt id='1236'> +2.8523461e+11 </wgt>
<wgt id='1237'> +2.9476289e+11 </wgt>
<wgt id='1238'> +2.9261338e+11 </wgt>
<wgt id='1239'> +2.9134938e+11 </wgt>
<wgt id='1240'> +2.7577124e+11 </wgt>
<wgt id='1241'> +2.9017043e+11 </wgt>
<wgt id='1242'> +2.8303944e+11 </wgt>
<wgt id='1243'> +2.7958778e+11 </wgt>
<wgt id='1244'> +2.9173445e+11 </wgt>
<wgt id='1245'> +2.6699340e+11 </wgt>
<wgt id='1246'> +3.0300188e+11 </wgt>
<wgt id='1247'> +2.8075629e+11 </wgt>
<wgt id='1248'> +2.7539238e+11 </wgt>
<wgt id='1249'> +2.7570539e+11 </wgt>
<wgt id='1250'> +2.9735331e+11 </wgt>
<wgt id='1251'> +3.0932303e+11 </wgt>
<wgt id='1252'> +2.8865247e+11 </wgt>
<wgt id='1253'> +3.0991105e+11 </wgt>
<wgt id='1254'> +2.9338108e+11 </wgt>
<wgt id='1255'> +3.1590785e+11 </wgt>
<wgt id='1256'> +3.1124115e+11 </wgt>
<wgt id='1257'> +2.9709791e+11 </wgt>
<wgt id='1258'> +2.9330279e+11 </wgt>
<wgt id='1259'> +3.2433226e+11 </wgt>
<wgt id='1260'> +3.4449231e+11 </wgt>
<wgt id='1261'> +3.2867528e+11 </wgt>
<wgt id='1262'> +3.0344955e+11 </wgt>
<wgt id='1263'> +3.0836671e+11 </wgt>
<wgt id='1264'> +3.0540010e+11 </wgt>
<wgt id='1265'> +2.8732314e+11 </wgt>
<wgt id='1266'> +3.0838616e+11 </wgt>
<wgt id='1267'> +3.8844312e+11 </wgt>
<wgt id='1268'> +2.8631817e+11 </wgt>
<wgt id='1269'> +2.8444112e+11 </wgt>
<wgt id='1270'> +3.2226416e+11 </wgt>
<wgt id='1271'> +2.5428361e+11 </wgt>
<wgt id='1272'> +3.0149198e+11 </wgt>
<wgt id='1273'> +2.9408159e+11 </wgt>
<wgt id='1274'> +2.9281310e+11 </wgt>
<wgt id='1275'> +2.8985005e+11 </wgt>
<wgt id='1276'> +3.1742087e+11 </wgt>
<wgt id='1277'> +3.1656861e+11 </wgt>
<wgt id='1278'> +3.1058210e+11 </wgt>
<wgt id='1279'> +2.7745886e+11 </wgt>
<wgt id='1280'> +2.9711974e+11 </wgt>
<wgt id='1281'> +2.8638062e+11 </wgt>
<wgt id='1282'> +2.9308834e+11 </wgt>
<wgt id='1283'> +3.3066944e+11 </wgt>
<wgt id='1284'> +2.9915755e+11 </wgt>
<wgt id='1285'> +3.0331326e+11 </wgt>
<wgt id='1286'> +3.5001249e+11 </wgt>
<wgt id='1287'> +3.4761271e+11 </wgt>
<wgt id='1288'> +3.6990981e+11 </wgt>
<wgt id='1289'> +3.2901793e+11 </wgt>
<wgt id='1290'> +3.1755727e+11 </wgt>
<wgt id='1291'> +2.8298424e+11 </wgt>
<wgt id='1292'> +3.1276533e+11 </wgt>
<wgt id='1293'> +3.0604552e+11 </wgt>
<wgt id='1294'> +3.5364851e+11 </wgt>
<wgt id='1295'> +3.1824415e+11 </wgt>
<wgt id='1296'> +3.6026052e+11 </wgt>
<wgt id='1297'> +2.8259695e+11 </wgt>
<wgt id='1298'> +2.9467204e+11 </wgt>
<wgt id='1299'> +3.1067753e+11 </wgt>
<wgt id='1300'> +2.6269010e+11 </wgt>
<wgt id='1301'> +2.7845978e+11 </wgt>
<wgt id='1302'> +2.7678230e+11 </wgt>
<wgt id='1303'> +3.1415994e+11 </wgt>
<wgt id='1304'> +3.5550882e+11 </wgt>
<wgt id='1305'> +2.9664322e+11 </wgt>
<wgt id='1306'> +3.0764590e+11 </wgt>
<wgt id='1307'> +2.7239423e+11 </wgt>
<wgt id='1308'> +3.4202188e+11 </wgt>
<wgt id='1309'> +3.1274822e+11 </wgt>
<wgt id='1310'> +3.0902285e+11 </wgt>
<wgt id='1311'> +2.8949103e+11 </wgt>
<wgt id='1312'> +3.4686181e+11 </wgt>
<wgt id='1313'> +3.2006266e+11 </wgt>
<wgt id='1314'> +2.7937989e+11 </wgt>
<wgt id='1315'> +2.8594309e+11 </wgt>
<wgt id='1316'> +3.0129596e+11 </wgt>
<wgt id='1317'> +3.4180357e+11 </wgt>
<wgt id='1318'> +2.9203865e+11 </wgt>
<wgt id='1319'> +3.0555182e+11 </wgt>
<wgt id='1320'> +3.2889367e+11 </wgt>
<wgt id='1321'> +3.1696865e+11 </wgt>
<wgt id='1322'> +3.3067590e+11 </wgt>
<wgt id='1323'> +2.7191513e+11 </wgt>
<wgt id='1324'> +3.2509483e+11 </wgt>
<wgt id='1325'> +3.1903065e+11 </wgt>
<wgt id='1326'> +3.1872020e+11 </wgt>
<wgt id='1327'> +3.3295418e+11 </wgt>
<wgt id='1328'> +3.1389275e+11 </wgt>
<wgt id='1329'> +2.9451310e+11 </wgt>
<wgt id='1330'> +2.7776281e+11 </wgt>
<wgt id='1331'> +3.3152413e+11 </wgt>
<wgt id='1332'> +3.1696085e+11 </wgt>
<wgt id='1333'> +3.0461402e+11 </wgt>
<wgt id='1334'> +3.3739599e+11 </wgt>
<wgt id='1335'> +2.8214564e+11 </wgt>
<wgt id='1336'> +3.4339389e+11 </wgt>
<wgt id='1337'> +3.1368557e+11 </wgt>
<wgt id='1338'> +2.8238523e+11 </wgt>
<wgt id='1339'> +3.0226842e+11 </wgt>
<wgt id='1340'> +3.3633907e+11 </wgt>
<wgt id='1341'> +3.6888348e+11 </wgt>
<wgt id='1342'> +2.8750736e+11 </wgt>
<wgt id='1343'> +3.1222237e+11 </wgt>
<wgt id='1344'> +3.3344070e+11 </wgt>
<wgt id='1345'> +2.3752016e+11 </wgt>
<wgt id='1346'> +3.0903388e+11 </wgt>
<wgt id='1347'> +3.0569555e+11 </wgt>
<wgt id='1348'> +2.9035381e+11 </wgt>
<wgt id='1349'> +2.9407336e+11 </wgt>
<wgt id='1350'> +3.3801668e+11 </wgt>
<wgt id='1351'> +2.8748454e+11 </wgt>
<wgt id='1352'> +3.1134532e+11 </wgt>
<wgt id='1353'> +3.1183721e+11 </wgt>
<wgt id='1354'> +3.1853164e+11 </wgt>
<wgt id='1355'> +2.8480757e+11 </wgt>
<wgt id='1356'> +2.8731761e+11 </wgt>
<wgt id='1357'> +2.8767453e+11 </wgt>
<wgt id='1358'> +2.8278703e+11 </wgt>
<wgt id='1359'> +2.8207522e+11 </wgt>
<wgt id='1360'> +2.7967352e+11 </wgt>
<wgt id='1361'> +2.8311641e+11 </wgt>
<wgt id='1362'> +2.9428685e+11 </wgt>
<wgt id='1363'> +2.8484251e+11 </wgt>
<wgt id='1364'> +2.9809449e+11 </wgt>
<wgt id='1365'> +2.8223253e+11 </wgt>
<wgt id='1366'> +2.8231886e+11 </wgt>
<wgt id='1367'> +2.7972200e+11 </wgt>
<wgt id='1368'> +2.8883295e+11 </wgt>
<wgt id='1369'> +2.8813547e+11 </wgt>
<wgt id='1370'> +2.7593487e+11 </wgt>
<wgt id='1371'> +2.8081896e+11 </wgt>
<wgt id='1372'> +2.7952001e+11 </wgt>
<wgt id='1373'> +2.9167851e+11 </wgt>
<wgt id='1374'> +2.8316559e+11 </wgt>
<wgt id='1375'> +2.8721902e+11 </wgt>
<wgt id='1376'> +2.8532102e+11 </wgt>
<wgt id='1377'> +2.8353237e+11 </wgt>
<wgt id='1378'> +2.9021194e+11 </wgt>
<wgt id='1379'> +2.8200250e+11 </wgt>
<wgt id='1380'> +2.8220749e+11 </wgt>
<wgt id='1381'> +2.8824119e+11 </wgt>
<wgt id='1382'> +2.8061535e+11 </wgt>
<wgt id='1383'> +2.8099521e+11 </wgt>
<wgt id='1384'> +2.7574221e+11 </wgt>
<wgt id='1385'> +2.7870842e+11 </wgt>
<wgt id='1386'> +2.8037481e+11 </wgt>
<wgt id='1387'> +2.8484159e+11 </wgt>
<wgt id='1388'> +2.8200734e+11 </wgt>
<wgt id='1389'> +2.7991764e+11 </wgt>
<wgt id='1390'> +2.8846483e+11 </wgt>
<wgt id='1391'> +2.8978120e+11 </wgt>
<wgt id='1392'> +2.7579783e+11 </wgt>
<wgt id='1393'> +2.8908273e+11 </wgt>
<wgt id='1394'> +2.8761695e+11 </wgt>
<wgt id='1395'> +2.7685622e+11 </wgt>
<wgt id='1396'> +2.8486439e+11 </wgt>
<wgt id='1397'> +2.8366354e+11 </wgt>
<wgt id='1398'> +2.9504283e+11 </wgt>
<wgt id='1399'> +2.8220363e+11 </wgt>
<wgt id='1400'> +2.7794862e+11 </wgt>
<wgt id='1401'> +2.8300017e+11 </wgt>
<wgt id='1402'> +2.8663827e+11 </wgt>
<wgt id='1403'> +2.9885628e+11 </wgt>
<wgt id='1404'> +2.8953973e+11 </wgt>
<wgt id='1405'> +2.9715665e+11 </wgt>
<wgt id='1406'> +2.9198265e+11 </wgt>
<wgt id='1407'> +2.9108807e+11 </wgt>
<wgt id='1408'> +2.9863196e+11 </wgt>
<wgt id='1409'> +2.7711987e+11 </wgt>
<wgt id='1410'> +2.7844809e+11 </wgt>
<wgt id='1411'> +2.8426265e+11 </wgt>
<wgt id='1412'> +2.9068492e+11 </wgt>
<wgt id='1413'> +2.9342706e+11 </wgt>
<wgt id='1414'> +2.8774091e+11 </wgt>
<wgt id='1415'> +2.7785962e+11 </wgt>
<wgt id='1416'> +2.8419230e+11 </wgt>
<wgt id='1417'> +2.8115251e+11 </wgt>
<wgt id='1418'> +2.8195888e+11 </wgt>
<wgt id='1419'> +2.8654302e+11 </wgt>
<wgt id='1420'> +2.7155574e+11 </wgt>
<wgt id='1421'> +2.9417660e+11 </wgt>
<wgt id='1422'> +2.7412186e+11 </wgt>
<wgt id='1423'> +2.8620218e+11 </wgt>
<wgt id='1424'> +2.8168062e+11 </wgt>
<wgt id='1425'> +2.8346711e+11 </wgt>
<wgt id='1426'> +2.8989950e+11 </wgt>
<wgt id='1427'> +2.8054743e+11 </wgt>
<wgt id='1428'> +2.7943151e+11 </wgt>
<wgt id='1429'> +2.8553745e+11 </wgt>
<wgt id='1430'> +2.8106749e+11 </wgt>
<wgt id='1431'> +2.8714079e+11 </wgt>
<wgt id='1432'> +2.7577364e+11 </wgt>
<wgt id='1433'> +2.7538404e+11 </wgt>
<wgt id='1434'> +2.8690965e+11 </wgt>
<wgt id='1435'> +2.8665242e+11 </wgt>
<wgt id='1436'> +2.8817782e+11 </wgt>
<wgt id='1437'> +2.8226320e+11 </wgt>
<wgt id='1438'> +2.8426048e+11 </wgt>
<wgt id='1439'> +2.9492404e+11 </wgt>
<wgt id='1440'> +2.8356217e+11 </wgt>
<wgt id='1441'> +2.8010001e+11 </wgt>
<wgt id='1442'> +2.8461614e+11 </wgt>
<wgt id='1443'> +2.7762243e+11 </wgt>
<wgt id='1444'> +2.9625487e+11 </wgt>
<wgt id='1445'> +2.7999140e+11 </wgt>
<wgt id='1446'> +2.9903117e+11 </wgt>
<wgt id='1447'> +2.8935508e+11 </wgt>
<wgt id='1448'> +2.8824169e+11 </wgt>
<wgt id='1449'> +2.8645795e+11 </wgt>
<wgt id='1450'> +2.8204202e+11 </wgt>
<wgt id='1451'> +2.8050559e+11 </wgt>
<wgt id='1452'> +2.8850011e+11 </wgt>
<wgt id='1453'> +2.9172153e+11 </wgt>
<wgt id='1454'> +2.7457225e+11 </wgt>
<wgt id='1455'> +2.8342336e+11 </wgt>
<wgt id='1456'> +2.8162521e+11 </wgt>
<wgt id='1457'> +2.8646806e+11 </wgt>
<wgt id='1458'> +2.9519558e+11 </wgt>
<wgt id='1459'> +3.1594512e+11 </wgt>
<wgt id='1460'> +3.1004739e+11 </wgt>
<wgt id='1461'> +3.7945089e+11 </wgt>
<wgt id='1462'> +3.0898252e+11 </wgt>
<wgt id='1463'> +3.0919215e+11 </wgt>
<wgt id='1464'> +3.0871367e+11 </wgt>
<wgt id='1465'> +3.0905640e+11 </wgt>
<wgt id='1466'> +3.0891505e+11 </wgt>
<wgt id='1467'> +3.0906860e+11 </wgt>
<wgt id='1468'> +3.0884128e+11 </wgt>
<wgt id='1469'> +3.0854613e+11 </wgt>
<wgt id='1470'> +3.0933690e+11 </wgt>
<wgt id='1471'> +3.0942534e+11 </wgt>
<wgt id='1472'> +3.0852641e+11 </wgt>
<wgt id='1473'> +3.1024671e+11 </wgt>
<wgt id='1474'> +3.0776821e+11 </wgt>
<wgt id='1475'> +3.1016355e+11 </wgt>
<wgt id='1476'> +3.0814553e+11 </wgt>
<wgt id='1477'> +3.0843337e+11 </wgt>
<wgt id='1478'> +3.1026585e+11 </wgt>
<wgt id='1479'> +3.0878116e+11 </wgt>
<wgt id='1480'> +3.0913121e+11 </wgt>
<wgt id='1481'> +3.0823203e+11 </wgt>
<wgt id='1482'> +3.1000084e+11 </wgt>
<wgt id='1483'> +3.0900019e+11 </wgt>
<wgt id='1484'> +3.0896616e+11 </wgt>
<wgt id='1485'> +3.0917749e+11 </wgt>
<wgt id='1486'> +3.0851248e+11 </wgt>
<wgt id='1487'> +3.0925482e+11 </wgt>
<wgt id='1488'> +3.0863914e+11 </wgt>
<wgt id='1489'> +3.0857973e+11 </wgt>
<wgt id='1490'> +3.1007529e+11 </wgt>
<wgt id='1491'> +3.1436746e+11 </wgt>
<wgt id='1492'> +3.0598457e+11 </wgt>
<wgt id='1493'> +3.0507507e+11 </wgt>
<wgt id='1494'> +3.2123775e+11 </wgt>
<wgt id='1495'> +3.0792543e+11 </wgt>
<wgt id='1496'> +3.1011913e+11 </wgt>
<wgt id='1497'> +3.0923515e+11 </wgt>
<wgt id='1498'> +3.0863846e+11 </wgt>
<wgt id='1499'> +3.1142990e+11 </wgt>
<wgt id='1500'> +3.0764917e+11 </wgt>
<wgt id='1501'> +3.0911516e+11 </wgt>
<wgt id='1502'> +3.0865638e+11 </wgt>
<wgt id='1503'> +3.0295058e+11 </wgt>
<wgt id='1504'> +3.1596857e+11 </wgt>
<wgt id='1505'> +3.0929247e+11 </wgt>
<wgt id='1506'> +3.0867480e+11 </wgt>
<wgt id='1507'> +3.1462927e+11 </wgt>
<wgt id='1508'> +2.9867432e+11 </wgt>
<wgt id='1509'> +3.1002350e+11 </wgt>
<wgt id='1510'> +3.0447498e+11 </wgt>
<wgt id='1511'> +3.1019126e+11 </wgt>
<wgt id='1512'> +3.0880787e+11 </wgt>
<wgt id='1513'> +3.0863531e+11 </wgt>
<wgt id='1514'> +3.0938560e+11 </wgt>
<wgt id='1515'> +3.1471898e+11 </wgt>
<wgt id='1516'> +3.0726557e+11 </wgt>
<wgt id='1517'> +3.0819965e+11 </wgt>
<wgt id='1518'> +3.1034012e+11 </wgt>
<wgt id='1519'> +3.0659719e+11 </wgt>
<wgt id='1520'> +3.1066687e+11 </wgt>
<wgt id='1521'> +3.0721884e+11 </wgt>
<wgt id='1522'> +3.0994872e+11 </wgt>
<wgt id='1523'> +3.1030843e+11 </wgt>
<wgt id='1524'> +3.1081478e+11 </wgt>
<wgt id='1525'> +3.0930038e+11 </wgt>
<wgt id='1526'> +3.1113471e+11 </wgt>
<wgt id='1527'> +3.0898252e+11 </wgt>
<wgt id='1528'> +3.0650310e+11 </wgt>
<wgt id='1529'> +3.1145057e+11 </wgt>
<wgt id='1530'> +3.0142054e+11 </wgt>
<wgt id='1531'> +3.1798853e+11 </wgt>
<wgt id='1532'> +3.2002594e+11 </wgt>
<wgt id='1533'> +3.1166882e+11 </wgt>
<wgt id='1534'> +3.1572890e+11 </wgt>
<wgt id='1535'> +3.2204718e+11 </wgt>
<wgt id='1536'> +3.1308611e+11 </wgt>
<wgt id='1537'> +3.2234887e+11 </wgt>
<wgt id='1538'> +3.1297984e+11 </wgt>
<wgt id='1539'> +3.2318029e+11 </wgt>
<wgt id='1540'> +3.2119512e+11 </wgt>
<wgt id='1541'> +3.2068945e+11 </wgt>
<wgt id='1542'> +3.1874179e+11 </wgt>
<wgt id='1543'> +3.2090327e+11 </wgt>
<wgt id='1544'> +3.1606343e+11 </wgt>
<wgt id='1545'> +3.1607868e+11 </wgt>
<wgt id='1546'> +3.1441215e+11 </wgt>
<wgt id='1547'> +3.2017903e+11 </wgt>
<wgt id='1548'> +3.1747552e+11 </wgt>
<wgt id='1549'> +3.1435883e+11 </wgt>
<wgt id='1550'> +3.2131099e+11 </wgt>
<wgt id='1551'> +3.1867138e+11 </wgt>
<wgt id='1552'> +3.1861849e+11 </wgt>
<wgt id='1553'> +3.2696840e+11 </wgt>
<wgt id='1554'> +3.1872305e+11 </wgt>
<wgt id='1555'> +3.1901447e+11 </wgt>
<wgt id='1556'> +3.2003707e+11 </wgt>
<wgt id='1557'> +3.1788797e+11 </wgt>
<wgt id='1558'> +3.1822936e+11 </wgt>
<wgt id='1559'> +3.1564482e+11 </wgt>
<wgt id='1560'> +3.1764458e+11 </wgt>
<wgt id='1561'> +3.1693823e+11 </wgt>
<wgt id='1562'> +3.1505179e+11 </wgt>
<wgt id='1563'> +3.1843638e+11 </wgt>
<wgt id='1564'> +3.1765859e+11 </wgt>
<wgt id='1565'> +3.2242080e+11 </wgt>
<wgt id='1566'> +3.1796078e+11 </wgt>
<wgt id='1567'> +3.1654875e+11 </wgt>
<wgt id='1568'> +3.1777883e+11 </wgt>
<wgt id='1569'> +3.1724306e+11 </wgt>
<wgt id='1570'> +3.2553949e+11 </wgt>
<wgt id='1571'> +3.1786838e+11 </wgt>
<wgt id='1572'> +3.1841940e+11 </wgt>
<wgt id='1573'> +3.2422975e+11 </wgt>
<wgt id='1574'> +2.4411702e+11 </wgt>
<wgt id='1575'> +2.4417865e+11 </wgt>
<wgt id='1576'> +2.4404748e+11 </wgt>
<wgt id='1577'> +2.4413455e+11 </wgt>
<wgt id='1578'> +2.4468000e+11 </wgt>
<wgt id='1579'> +2.4485040e+11 </wgt>
<wgt id='1580'> +2.4461131e+11 </wgt>
<wgt id='1581'> +2.4378361e+11 </wgt>
<wgt id='1582'> +2.4354783e+11 </wgt>
<wgt id='1583'> +2.4362467e+11 </wgt>
<wgt id='1584'> +2.4467439e+11 </wgt>
<wgt id='1585'> +2.4444531e+11 </wgt>
<wgt id='1586'> +2.4350989e+11 </wgt>
<wgt id='1587'> +2.4357578e+11 </wgt>
<wgt id='1588'> +2.4318250e+11 </wgt>
<wgt id='1589'> +2.4372399e+11 </wgt>
<wgt id='1590'> +2.4397909e+11 </wgt>
<wgt id='1591'> +2.4419950e+11 </wgt>
<wgt id='1592'> +2.4320271e+11 </wgt>
<wgt id='1593'> +2.4286628e+11 </wgt>
<wgt id='1594'> +2.4536809e+11 </wgt>
<wgt id='1595'> +2.4139045e+11 </wgt>
<wgt id='1596'> +2.4882755e+11 </wgt>
<wgt id='1597'> +2.4594033e+11 </wgt>
<wgt id='1598'> +2.4596777e+11 </wgt>
<wgt id='1599'> +2.4092613e+11 </wgt>
<wgt id='1600'> +2.4933609e+11 </wgt>
<wgt id='1601'> +2.4626773e+11 </wgt>
<wgt id='1602'> +2.4426964e+11 </wgt>
<wgt id='1603'> +2.6077075e+11 </wgt>
<wgt id='1604'> +2.4408116e+11 </wgt>
</rwgt>
</event>
<event>
 9      1 +2.8343000e+11 1.39999900e+03 7.81738600e-03 7.88881200e-02
       21 -1    0    0  504  503 +0.0000000000e+00 +0.0000000000e+00 +2.8931726486e+02 2.8931726486e+02 0.0000000000e+00 0.0000e+00 -1.0000e+00
       21 -1    0    0  503  504 -0.0000000000e+00 -0.0000000000e+00 -1.6936399228e+03 1.6936399228e+03 0.0000000000e+00 0.0000e+00 -1.0000e+00
       45  2    1    2    0    0 +0.0000000000e+00 +5.6843418861e-14 -1.4043226580e+03 1.9829571877e+03 1.3999989573e+03 0.0000e+00 0.0000e+00
       25  2    3    3    0    0 +5.5775719923e+02 -3.2497374289e+02 -1.0559496770e+03 1.2439275721e+03 1.2500022940e+02 0.0000e+00 0.0000e+00
       35  2    3    3    0    0 -5.5775719923e+02 +3.2497374289e+02 -3.4837298100e+02 7.3902961564e+02 9.0000066929e+01 0.0000e+00 0.0000e+00
        5  1    5    5  501    0 -1.8447394578e+02 +1.0348123376e+02 -6.7721370405e+01 2.2213271758e+02 4.2140000000e+00 0.0000e+00 -1.0000e+00
       -5  1    5    5    0  501 -3.7328325345e+02 +2.2149250913e+02 -2.8065161059e+02 5.1689689807e+02 4.2140000000e+00 0.0000e+00 -1.0000e+00
        5  1    4    4  502    0 +1.7195990598e+02 -6.8618460301e+01 -2.1436764659e+02 2.8328421781e+02 4.2140000000e+00 0.0000e+00 1.0000e+00
       -5  1    4    4    0  502 +3.8579729325e+02 -2.5635528259e+02 -8.4158203040e+02 9.6064335425e+02 4.2140000000e+00 0.0000e+00 1.0000e+00
<mgrwt>
<rscale>  0 0.13999990E+04</rscale>
<asrwt>0</asrwt>
<pdfrwt beam="1">  1       21 0.44510348E-01 0.13999990E+04</pdfrwt>
<pdfrwt beam="2">  1       21 0.26055999E+00 0.13999990E+04</pdfrwt>
<totfact> 0.17040081E+02</totfact>
</mgrwt>
<rwgt>
<wgt id='1001'> +2.8343000e+11 </wgt>
<wgt id='1002'> +2.8726076e+11 </wgt>
<wgt id='1003'> +2.8725878e+11 </wgt>
<wgt id='1004'> +3.2485477e+11 </wgt>
<wgt id='1005'> +2.8343000e+11 </wgt>
<wgt id='1006'> +2.8343000e+11 </wgt>
<wgt id='1007'> +2.8726076e+11 </wgt>
<wgt id='1008'> +2.8725878e+11 </wgt>
<wgt id='1009'> +3.2485477e+11 </wgt>
<wgt id='1010'> +2.8343000e+11 </wgt>
<wgt id='1011'> +2.8343000e+11 </wgt>
<wgt id='1012'> +2.8726076e+11 </wgt>
<wgt id='1013'> +2.8725878e+11 </wgt>
<wgt id='1014'> +3.2485477e+11 </wgt>
<wgt id='1015'> +2.8343000e+11 </wgt>
<wgt id='1016'> +2.5275822e+11 </wgt>
<wgt id='1017'> +2.5597780e+11 </wgt>
<wgt id='1018'> +2.5597614e+11 </wgt>
<wgt id='1019'> +2.8725878e+11 </wgt>
<wgt id='1020'> +2.5275822e+11 </wgt>
<wgt id='1021'> +2.5275822e+11 </wgt>
<wgt id='1022'> +2.5597780e+11 </wgt>
<wgt id='1023'> +2.5597614e+11 </wgt>
<wgt id='1024'> +2.8725878e+11 </wgt>
<wgt id='1025'> +2.5275822e+11 </wgt>
<wgt id='1026'> +2.5275822e+11 </wgt>
<wgt id='1027'> +2.5597780e+11 </wgt>
<wgt id='1028'> +2.5597614e+11 </wgt>
<wgt id='1029'> +2.8725878e+11 </wgt>
<wgt id='1030'> +2.5275822e+11 </wgt>
<wgt id='1031'> +3.2022848e+11 </wgt>
<wgt id='1032'> +3.2485716e+11 </wgt>
<wgt id='1033'> +3.2485477e+11 </wgt>
<wgt id='1034'> +3.7043781e+11 </wgt>
<wgt id='1035'> +3.2022848e+11 </wgt>
<wgt id='1036'> +3.2022848e+11 </wgt>
<wgt id='1037'> +3.2485716e+11 </wgt>
<wgt id='1038'> +3.2485477e+11 </wgt>
<wgt id='1039'> +3.7043781e+11 </wgt>
<wgt id='1040'> +3.2022848e+11 </wgt>
<wgt id='1041'> +3.2022848e+11 </wgt>
<wgt id='1042'> +3.2485716e+11 </wgt>
<wgt id='1043'> +3.2485477e+11 </wgt>
<wgt id='1044'> +3.7043781e+11 </wgt>
<wgt id='1045'> +3.2022848e+11 </wgt>
<wgt id='1046'> +2.8343000e+11 </wgt>
<wgt id='1047'> +2.8343000e+11 </wgt>
<wgt id='1048'> +2.8343000e+11 </wgt>
<wgt id='1049'> +2.8315252e+11 </wgt>
<wgt id='1050'> +2.8294158e+11 </wgt>
<wgt id='1051'> +2.8359564e+11 </wgt>
<wgt id='1052'> +2.8377624e+11 </wgt>
<wgt id='1053'> +2.8149614e+11 </wgt>
<wgt id='1054'> +2.8446936e+11 </wgt>
<wgt id='1055'> +2.8196487e+11 </wgt>
<wgt id='1056'> +2.8159343e+11 </wgt>
<wgt id='1057'> +2.8216463e+11 </wgt>
<wgt id='1058'> +2.8260407e+11 </wgt>
<wgt id='1059'> +2.8586696e+11 </wgt>
<wgt id='1060'> +2.8339805e+11 </wgt>
<wgt id='1061'> +2.8431045e+11 </wgt>
<wgt id='1062'> +2.8444594e+11 </wgt>
<wgt id='1063'> +2.8472549e+11 </wgt>
<wgt id='1064'> +2.8445712e+11 </wgt>
<wgt id='1065'> +2.8530075e+11 </wgt>
<wgt id='1066'> +2.8209436e+11 </wgt>
<wgt id='1067'> +2.8221141e+11 </wgt>
<wgt id='1068'> +2.8416651e+11 </wgt>
<wgt id='1069'> +2.8241497e+11 </wgt>
<wgt id='1070'> +2.8385544e+11 </wgt>
<wgt id='1071'> +2.8350099e+11 </wgt>
<wgt id='1072'> +2.8385426e+11 </wgt>
<wgt id='1073'> +2.8206899e+11 </wgt>
<wgt id='1074'> +2.8236984e+11 </wgt>
<wgt id='1075'> +2.8238925e+11 </wgt>
<wgt id='1076'> +2.8281481e+11 </wgt>
<wgt id='1077'> +2.8157061e+11 </wgt>
<wgt id='1078'> +2.8315422e+11 </wgt>
<wgt id='1079'> +2.8252048e+11 </wgt>
<wgt id='1080'> +2.8253463e+11 </wgt>
<wgt id='1081'> +2.8316552e+11 </wgt>
<wgt id='1082'> +2.8330932e+11 </wgt>
<wgt id='1083'> +2.8429108e+11 </wgt>
<wgt id='1084'> +2.8394507e+11 </wgt>
<wgt id='1085'> +2.8217522e+11 </wgt>
<wgt id='1086'> +2.8470039e+11 </wgt>
<wgt id='1087'> +2.8377200e+11 </wgt>
<wgt id='1088'> +2.8254892e+11 </wgt>
<wgt id='1089'> +2.8260161e+11 </wgt>
<wgt id='1090'> +2.8431505e+11 </wgt>
<wgt id='1091'> +2.8375429e+11 </wgt>
<wgt id='1092'> +2.8361146e+11 </wgt>
<wgt id='1093'> +2.8334823e+11 </wgt>
<wgt id='1094'> +2.8183684e+11 </wgt>
<wgt id='1095'> +2.8388594e+11 </wgt>
<wgt id='1096'> +2.8345610e+11 </wgt>
<wgt id='1097'> +2.8263819e+11 </wgt>
<wgt id='1098'> +2.8307314e+11 </wgt>
<wgt id='1099'> +2.8333010e+11 </wgt>
<wgt id='1100'> +2.8391083e+11 </wgt>
<wgt id='1101'> +2.8337051e+11 </wgt>
<wgt id='1102'> +2.8324111e+11 </wgt>
<wgt id='1103'> +2.8218606e+11 </wgt>
<wgt id='1104'> +2.8361055e+11 </wgt>
<wgt id='1105'> +2.8356804e+11 </wgt>
<wgt id='1106'> +2.8392495e+11 </wgt>
<wgt id='1107'> +2.8387451e+11 </wgt>
<wgt id='1108'> +2.8313985e+11 </wgt>
<wgt id='1109'> +2.8344342e+11 </wgt>
<wgt id='1110'> +2.8357622e+11 </wgt>
<wgt id='1111'> +2.8406058e+11 </wgt>
<wgt id='1112'> +2.8318284e+11 </wgt>
<wgt id='1113'> +2.8380085e+11 </wgt>
<wgt id='1114'> +2.8312156e+11 </wgt>
<wgt id='1115'> +2.8263630e+11 </wgt>
<wgt id='1116'> +2.8444036e+11 </wgt>
<wgt id='1117'> +2.8328548e+11 </wgt>
<wgt id='1118'> +2.8398180e+11 </wgt>
<wgt id='1119'> +2.8277646e+11 </wgt>
<wgt id='1120'> +2.8272530e+11 </wgt>
<wgt id='1121'> +2.8344778e+11 </wgt>
<wgt id='1122'> +2.8281909e+11 </wgt>
<wgt id='1123'> +2.8337628e+11 </wgt>
<wgt id='1124'> +2.8362711e+11 </wgt>
<wgt id='1125'> +2.8363617e+11 </wgt>
<wgt id='1126'> +2.8357361e+11 </wgt>
<wgt id='1127'> +2.8334979e+11 </wgt>
<wgt id='1128'> +2.8330497e+11 </wgt>
<wgt id='1129'> +2.8312373e+11 </wgt>
<wgt id='1130'> +2.8345573e+11 </wgt>
<wgt id='1131'> +2.8422086e+11 </wgt>
<wgt id='1132'> +2.8324228e+11 </wgt>
<wgt id='1133'> +2.8365408e+11 </wgt>
<wgt id='1134'> +2.8333728e+11 </wgt>
<wgt id='1135'> +2.8348973e+11 </wgt>
<wgt id='1136'> +2.8321025e+11 </wgt>
<wgt id='1137'> +2.8309553e+11 </wgt>
<wgt id='1138'> +2.8361086e+11 </wgt>
<wgt id='1139'> +2.8367083e+11 </wgt>
<wgt id='1140'> +2.8377410e+11 </wgt>
<wgt id='1141'> +2.8304592e+11 </wgt>
<wgt id='1142'> +2.8347188e+11 </wgt>
<wgt id='1143'> +2.8370818e+11 </wgt>
<wgt id='1144'> +2.8333161e+11 </wgt>
<wgt id='1145'> +2.8364842e+11 </wgt>
<wgt id='1146'> +2.8358835e+11 </wgt>
<wgt id='1147'> +2.8351669e+11 </wgt>
<wgt id='1148'> +2.8343000e+11 </wgt>
<wgt id='1149'> +2.8343000e+11 </wgt>
<wgt id='1150'> +2.8894001e+11 </wgt>
<wgt id='1151'> +2.7729967e+11 </wgt>
<wgt id='1152'> +2.7410458e+11 </wgt>
<wgt id='1153'> +2.8547822e+11 </wgt>
<wgt id='1154'> +2.7495239e+11 </wgt>
<wgt id='1155'> +2.9998108e+11 </wgt>
<wgt id='1156'> +2.8474817e+11 </wgt>
<wgt id='1157'> +2.7972598e+11 </wgt>
<wgt id='1158'> +2.7803527e+11 </wgt>
<wgt id='1159'> +2.8928342e+11 </wgt>
<wgt id='1160'> +2.7951602e+11 </wgt>
<wgt id='1161'> +2.9828255e+11 </wgt>
<wgt id='1162'> +2.8603500e+11 </wgt>
<wgt id='1163'> +2.8830160e+11 </wgt>
<wgt id='1164'> +2.7276328e+11 </wgt>
<wgt id='1165'> +2.7334860e+11 </wgt>
<wgt id='1166'> +2.8367553e+11 </wgt>
<wgt id='1167'> +2.7989009e+11 </wgt>
<wgt id='1168'> +2.7056609e+11 </wgt>
<wgt id='1169'> +2.7529038e+11 </wgt>
<wgt id='1170'> +2.8404382e+11 </wgt>
<wgt id='1171'> +2.7431125e+11 </wgt>
<wgt id='1172'> +2.7009006e+11 </wgt>
<wgt id='1173'> +2.8841656e+11 </wgt>
<wgt id='1174'> +2.7899240e+11 </wgt>
<wgt id='1175'> +2.7826992e+11 </wgt>
<wgt id='1176'> +2.8905736e+11 </wgt>
<wgt id='1177'> +2.8448607e+11 </wgt>
<wgt id='1178'> +2.8628385e+11 </wgt>
<wgt id='1179'> +2.9351820e+11 </wgt>
<wgt id='1180'> +2.7950468e+11 </wgt>
<wgt id='1181'> +2.8883941e+11 </wgt>
<wgt id='1182'> +2.8375113e+11 </wgt>
<wgt id='1183'> +2.9049023e+11 </wgt>
<wgt id='1184'> +2.6372709e+11 </wgt>
<wgt id='1185'> +2.9179492e+11 </wgt>
<wgt id='1186'> +2.7816643e+11 </wgt>
<wgt id='1187'> +2.9061263e+11 </wgt>
<wgt id='1188'> +2.9524203e+11 </wgt>
<wgt id='1189'> +2.8595055e+11 </wgt>
<wgt id='1190'> +2.8142412e+11 </wgt>
<wgt id='1191'> +2.9561508e+11 </wgt>
<wgt id='1192'> +2.8713143e+11 </wgt>
<wgt id='1193'> +2.8735710e+11 </wgt>
<wgt id='1194'> +2.7451395e+11 </wgt>
<wgt id='1195'> +2.9185722e+11 </wgt>
<wgt id='1196'> +2.8699428e+11 </wgt>
<wgt id='1197'> +2.9086113e+11 </wgt>
<wgt id='1198'> +2.8352714e+11 </wgt>
<wgt id='1199'> +2.8325702e+11 </wgt>
<wgt id='1200'> +2.9296669e+11 </wgt>
<wgt id='1201'> +2.8704128e+11 </wgt>
<wgt id='1202'> +2.8168194e+11 </wgt>
<wgt id='1203'> +2.8876749e+11 </wgt>
<wgt id='1204'> +2.7702343e+11 </wgt>
<wgt id='1205'> +2.8971872e+11 </wgt>
<wgt id='1206'> +2.8015874e+11 </wgt>
<wgt id='1207'> +2.9463501e+11 </wgt>
<wgt id='1208'> +2.7525866e+11 </wgt>
<wgt id='1209'> +2.8477535e+11 </wgt>
<wgt id='1210'> +2.8483465e+11 </wgt>
<wgt id='1211'> +2.7988497e+11 </wgt>
<wgt id='1212'> +2.7944216e+11 </wgt>
<wgt id='1213'> +2.8214276e+11 </wgt>
<wgt id='1214'> +2.8037932e+11 </wgt>
<wgt id='1215'> +2.8078664e+11 </wgt>
<wgt id='1216'> +2.7082160e+11 </wgt>
<wgt id='1217'> +2.8542253e+11 </wgt>
<wgt id='1218'> +2.8293866e+11 </wgt>
<wgt id='1219'> +2.9047515e+11 </wgt>
<wgt id='1220'> +2.8026191e+11 </wgt>
<wgt id='1221'> +2.7348861e+11 </wgt>
<wgt id='1222'> +2.7945429e+11 </wgt>
<wgt id='1223'> +2.7495381e+11 </wgt>
<wgt id='1224'> +2.8143540e+11 </wgt>
<wgt id='1225'> +2.7697832e+11 </wgt>
<wgt id='1226'> +2.8467933e+11 </wgt>
<wgt id='1227'> +2.7600747e+11 </wgt>
<wgt id='1228'> +2.7945351e+11 </wgt>
<wgt id='1229'> +2.9741720e+11 </wgt>
<wgt id='1230'> +2.8614353e+11 </wgt>
<wgt id='1231'> +2.7334860e+11 </wgt>
<wgt id='1232'> +2.9056586e+11 </wgt>
<wgt id='1233'> +2.7865718e+11 </wgt>
<wgt id='1234'> +2.7862100e+11 </wgt>
<wgt id='1235'> +3.0423167e+11 </wgt>
<wgt id='1236'> +2.8415798e+11 </wgt>
<wgt id='1237'> +2.9428639e+11 </wgt>
<wgt id='1238'> +2.8808723e+11 </wgt>
<wgt id='1239'> +2.9034534e+11 </wgt>
<wgt id='1240'> +2.7485739e+11 </wgt>
<wgt id='1241'> +2.9086268e+11 </wgt>
<wgt id='1242'> +2.8278188e+11 </wgt>
<wgt id='1243'> +2.8058478e+11 </wgt>
<wgt id='1244'> +2.9234920e+11 </wgt>
<wgt id='1245'> +2.6776757e+11 </wgt>
<wgt id='1246'> +3.0314809e+11 </wgt>
<wgt id='1247'> +2.8116695e+11 </wgt>
<wgt id='1248'> +2.7515648e+11 </wgt>
<wgt id='1249'> +2.7572212e+11 </wgt>
<wgt id='1250'> +2.9696305e+11 </wgt>
<wgt id='1251'> +3.0853995e+11 </wgt>
<wgt id='1252'> +2.8908663e+11 </wgt>
<wgt id='1253'> +3.0747686e+11 </wgt>
<wgt id='1254'> +2.9325954e+11 </wgt>
<wgt id='1255'> +3.1446865e+11 </wgt>
<wgt id='1256'> +3.1047819e+11 </wgt>
<wgt id='1257'> +2.9964050e+11 </wgt>
<wgt id='1258'> +2.9287972e+11 </wgt>
<wgt id='1259'> +3.2189244e+11 </wgt>
<wgt id='1260'> +3.4177306e+11 </wgt>
<wgt id='1261'> +3.2604065e+11 </wgt>
<wgt id='1262'> +3.0246913e+11 </wgt>
<wgt id='1263'> +3.0711145e+11 </wgt>
<wgt id='1264'> +3.0554916e+11 </wgt>
<wgt id='1265'> +2.8851003e+11 </wgt>
<wgt id='1266'> +3.0867982e+11 </wgt>
<wgt id='1267'> +3.8278865e+11 </wgt>
<wgt id='1268'> +2.8684752e+11 </wgt>
<wgt id='1269'> +2.8552116e+11 </wgt>
<wgt id='1270'> +3.2022506e+11 </wgt>
<wgt id='1271'> +2.5678986e+11 </wgt>
<wgt id='1272'> +3.0037698e+11 </wgt>
<wgt id='1273'> +2.9376294e+11 </wgt>
<wgt id='1274'> +2.9198947e+11 </wgt>
<wgt id='1275'> +2.9049473e+11 </wgt>
<wgt id='1276'> +3.1575710e+11 </wgt>
<wgt id='1277'> +3.1385739e+11 </wgt>
<wgt id='1278'> +3.0917081e+11 </wgt>
<wgt id='1279'> +2.7811614e+11 </wgt>
<wgt id='1280'> +2.9426567e+11 </wgt>
<wgt id='1281'> +2.8668856e+11 </wgt>
<wgt id='1282'> +2.9373580e+11 </wgt>
<wgt id='1283'> +3.2853262e+11 </wgt>
<wgt id='1284'> +3.0084215e+11 </wgt>
<wgt id='1285'> +3.0518692e+11 </wgt>
<wgt id='1286'> +3.4599884e+11 </wgt>
<wgt id='1287'> +3.4116928e+11 </wgt>
<wgt id='1288'> +3.6429661e+11 </wgt>
<wgt id='1289'> +3.2707281e+11 </wgt>
<wgt id='1290'> +3.1711240e+11 </wgt>
<wgt id='1291'> +2.8250507e+11 </wgt>
<wgt id='1292'> +3.1183003e+11 </wgt>
<wgt id='1293'> +3.0617713e+11 </wgt>
<wgt id='1294'> +3.4881899e+11 </wgt>
<wgt id='1295'> +3.1760064e+11 </wgt>
<wgt id='1296'> +3.5577589e+11 </wgt>
<wgt id='1297'> +2.8409198e+11 </wgt>
<wgt id='1298'> +2.9431393e+11 </wgt>
<wgt id='1299'> +3.1038661e+11 </wgt>
<wgt id='1300'> +2.6578276e+11 </wgt>
<wgt id='1301'> +2.7971885e+11 </wgt>
<wgt id='1302'> +2.7830444e+11 </wgt>
<wgt id='1303'> +3.1321502e+11 </wgt>
<wgt id='1304'> +3.5192854e+11 </wgt>
<wgt id='1305'> +2.9733312e+11 </wgt>
<wgt id='1306'> +3.0788472e+11 </wgt>
<wgt id='1307'> +2.7424369e+11 </wgt>
<wgt id='1308'> +3.4076448e+11 </wgt>
<wgt id='1309'> +3.1126969e+11 </wgt>
<wgt id='1310'> +3.0858290e+11 </wgt>
<wgt id='1311'> +2.9070138e+11 </wgt>
<wgt id='1312'> +3.4243870e+11 </wgt>
<wgt id='1313'> +3.1780729e+11 </wgt>
<wgt id='1314'> +2.8179945e+11 </wgt>
<wgt id='1315'> +2.8733489e+11 </wgt>
<wgt id='1316'> +3.0144729e+11 </wgt>
<wgt id='1317'> +3.3728076e+11 </wgt>
<wgt id='1318'> +2.9255182e+11 </wgt>
<wgt id='1319'> +3.0474017e+11 </wgt>
<wgt id='1320'> +3.2778868e+11 </wgt>
<wgt id='1321'> +3.1542559e+11 </wgt>
<wgt id='1322'> +3.2954086e+11 </wgt>
<wgt id='1323'> +2.7472935e+11 </wgt>
<wgt id='1324'> +3.2317620e+11 </wgt>
<wgt id='1325'> +3.1841792e+11 </wgt>
<wgt id='1326'> +3.1732904e+11 </wgt>
<wgt id='1327'> +3.3096147e+11 </wgt>
<wgt id='1328'> +3.1091158e+11 </wgt>
<wgt id='1329'> +2.9577011e+11 </wgt>
<wgt id='1330'> +2.7911151e+11 </wgt>
<wgt id='1331'> +3.3066673e+11 </wgt>
<wgt id='1332'> +3.1465613e+11 </wgt>
<wgt id='1333'> +3.0452080e+11 </wgt>
<wgt id='1334'> +3.3438289e+11 </wgt>
<wgt id='1335'> +2.8480651e+11 </wgt>
<wgt id='1336'> +3.3938316e+11 </wgt>
<wgt id='1337'> +3.1329665e+11 </wgt>
<wgt id='1338'> +2.8349747e+11 </wgt>
<wgt id='1339'> +3.0467630e+11 </wgt>
<wgt id='1340'> +3.3249024e+11 </wgt>
<wgt id='1341'> +3.6216217e+11 </wgt>
<wgt id='1342'> +2.8973811e+11 </wgt>
<wgt id='1343'> +3.1180328e+11 </wgt>
<wgt id='1344'> +3.3165892e+11 </wgt>
<wgt id='1345'> +2.4160468e+11 </wgt>
<wgt id='1346'> +3.0906293e+11 </wgt>
<wgt id='1347'> +3.0435207e+11 </wgt>
<wgt id='1348'> +2.9170571e+11 </wgt>
<wgt id='1349'> +2.9364052e+11 </wgt>
<wgt id='1350'> +3.3343947e+11 </wgt>
<wgt id='1351'> +2.8802396e+11 </wgt>
<wgt id='1352'> +3.1055728e+11 </wgt>
<wgt id='1353'> +3.1041574e+11 </wgt>
<wgt id='1354'> +3.1769303e+11 </wgt>
<wgt id='1355'> +2.8445642e+11 </wgt>
<wgt id='1356'> +2.8689605e+11 </wgt>
<wgt id='1357'> +2.8689784e+11 </wgt>
<wgt id='1358'> +2.8274957e+11 </wgt>
<wgt id='1359'> +2.8183984e+11 </wgt>
<wgt id='1360'> +2.7960883e+11 </wgt>
<wgt id='1361'> +2.8267712e+11 </wgt>
<wgt id='1362'> +2.9404866e+11 </wgt>
<wgt id='1363'> +2.8476311e+11 </wgt>
<wgt id='1364'> +2.9602144e+11 </wgt>
<wgt id='1365'> +2.8205290e+11 </wgt>
<wgt id='1366'> +2.8143038e+11 </wgt>
<wgt id='1367'> +2.8012148e+11 </wgt>
<wgt id='1368'> +2.8767305e+11 </wgt>
<wgt id='1369'> +2.8791695e+11 </wgt>
<wgt id='1370'> +2.7644226e+11 </wgt>
<wgt id='1371'> +2.8149461e+11 </wgt>
<wgt id='1372'> +2.8009083e+11 </wgt>
<wgt id='1373'> +2.9046551e+11 </wgt>
<wgt id='1374'> +2.8206590e+11 </wgt>
<wgt id='1375'> +2.8682745e+11 </wgt>
<wgt id='1376'> +2.8448132e+11 </wgt>
<wgt id='1377'> +2.8345186e+11 </wgt>
<wgt id='1378'> +2.8930512e+11 </wgt>
<wgt id='1379'> +2.8195244e+11 </wgt>
<wgt id='1380'> +2.8189862e+11 </wgt>
<wgt id='1381'> +2.8791161e+11 </wgt>
<wgt id='1382'> +2.8084371e+11 </wgt>
<wgt id='1383'> +2.8065493e+11 </wgt>
<wgt id='1384'> +2.7616660e+11 </wgt>
<wgt id='1385'> +2.7820939e+11 </wgt>
<wgt id='1386'> +2.8007490e+11 </wgt>
<wgt id='1387'> +2.8392984e+11 </wgt>
<wgt id='1388'> +2.8121013e+11 </wgt>
<wgt id='1389'> +2.8027674e+11 </wgt>
<wgt id='1390'> +2.8816981e+11 </wgt>
<wgt id='1391'> +2.8825724e+11 </wgt>
<wgt id='1392'> +2.7630344e+11 </wgt>
<wgt id='1393'> +2.8834971e+11 </wgt>
<wgt id='1394'> +2.8657664e+11 </wgt>
<wgt id='1395'> +2.7721534e+11 </wgt>
<wgt id='1396'> +2.8457236e+11 </wgt>
<wgt id='1397'> +2.8364590e+11 </wgt>
<wgt id='1398'> +2.9355279e+11 </wgt>
<wgt id='1399'> +2.8230022e+11 </wgt>
<wgt id='1400'> +2.7770418e+11 </wgt>
<wgt id='1401'> +2.8353679e+11 </wgt>
<wgt id='1402'> +2.8631554e+11 </wgt>
<wgt id='1403'> +2.9794455e+11 </wgt>
<wgt id='1404'> +2.8940228e+11 </wgt>
<wgt id='1405'> +2.9574052e+11 </wgt>
<wgt id='1406'> +2.9110491e+11 </wgt>
<wgt id='1407'> +2.8942852e+11 </wgt>
<wgt id='1408'> +2.9720052e+11 </wgt>
<wgt id='1409'> +2.7703417e+11 </wgt>
<wgt id='1410'> +2.7740172e+11 </wgt>
<wgt id='1411'> +2.8398877e+11 </wgt>
<wgt id='1412'> +2.8885801e+11 </wgt>
<wgt id='1413'> +2.9246386e+11 </wgt>
<wgt id='1414'> +2.8722601e+11 </wgt>
<wgt id='1415'> +2.7835682e+11 </wgt>
<wgt id='1416'> +2.8403083e+11 </wgt>
<wgt id='1417'> +2.8156324e+11 </wgt>
<wgt id='1418'> +2.8182057e+11 </wgt>
<wgt id='1419'> +2.8646404e+11 </wgt>
<wgt id='1420'> +2.7263016e+11 </wgt>
<wgt id='1421'> +2.9325155e+11 </wgt>
<wgt id='1422'> +2.7460554e+11 </wgt>
<wgt id='1423'> +2.8628573e+11 </wgt>
<wgt id='1424'> +2.8204175e+11 </wgt>
<wgt id='1425'> +2.8346502e+11 </wgt>
<wgt id='1426'> +2.8887415e+11 </wgt>
<wgt id='1427'> +2.8070311e+11 </wgt>
<wgt id='1428'> +2.7981089e+11 </wgt>
<wgt id='1429'> +2.8551249e+11 </wgt>
<wgt id='1430'> +2.8097250e+11 </wgt>
<wgt id='1431'> +2.8570007e+11 </wgt>
<wgt id='1432'> +2.7622228e+11 </wgt>
<wgt id='1433'> +2.7562705e+11 </wgt>
<wgt id='1434'> +2.8772350e+11 </wgt>
<wgt id='1435'> +2.8569442e+11 </wgt>
<wgt id='1436'> +2.8812286e+11 </wgt>
<wgt id='1437'> +2.8182735e+11 </wgt>
<wgt id='1438'> +2.8411824e+11 </wgt>
<wgt id='1439'> +2.9430946e+11 </wgt>
<wgt id='1440'> +2.8332866e+11 </wgt>
<wgt id='1441'> +2.7963878e+11 </wgt>
<wgt id='1442'> +2.8454632e+11 </wgt>
<wgt id='1443'> +2.7797538e+11 </wgt>
<wgt id='1444'> +2.9527867e+11 </wgt>
<wgt id='1445'> +2.8030753e+11 </wgt>
<wgt id='1446'> +2.9771991e+11 </wgt>
<wgt id='1447'> +2.8804600e+11 </wgt>
<wgt id='1448'> +2.8771755e+11 </wgt>
<wgt id='1449'> +2.8652697e+11 </wgt>
<wgt id='1450'> +2.8222338e+11 </wgt>
<wgt id='1451'> +2.8109480e+11 </wgt>
<wgt id='1452'> +2.8770949e+11 </wgt>
<wgt id='1453'> +2.8993636e+11 </wgt>
<wgt id='1454'> +2.7438015e+11 </wgt>
<wgt id='1455'> +2.8289411e+11 </wgt>
<wgt id='1456'> +2.8159774e+11 </wgt>
<wgt id='1457'> +2.8570745e+11 </wgt>
<wgt id='1458'> +2.9429026e+11 </wgt>
<wgt id='1459'> +3.1585404e+11 </wgt>
<wgt id='1460'> +3.1005908e+11 </wgt>
<wgt id='1461'> +3.7805695e+11 </wgt>
<wgt id='1462'> +3.0754787e+11 </wgt>
<wgt id='1463'> +3.0775843e+11 </wgt>
<wgt id='1464'> +3.0727781e+11 </wgt>
<wgt id='1465'> +3.0762064e+11 </wgt>
<wgt id='1466'> +3.0748140e+11 </wgt>
<wgt id='1467'> +3.0763765e+11 </wgt>
<wgt id='1468'> +3.0740055e+11 </wgt>
<wgt id='1469'> +3.0711368e+11 </wgt>
<wgt id='1470'> +3.0790046e+11 </wgt>
<wgt id='1471'> +3.0799043e+11 </wgt>
<wgt id='1472'> +3.0709201e+11 </wgt>
<wgt id='1473'> +3.0880022e+11 </wgt>
<wgt id='1474'> +3.0634493e+11 </wgt>
<wgt id='1475'> +3.0872183e+11 </wgt>
<wgt id='1476'> +3.0671585e+11 </wgt>
<wgt id='1477'> +3.0700105e+11 </wgt>
<wgt id='1478'> +3.0882570e+11 </wgt>
<wgt id='1479'> +3.0733459e+11 </wgt>
<wgt id='1480'> +3.0770446e+11 </wgt>
<wgt id='1481'> +3.0683308e+11 </wgt>
<wgt id='1482'> +3.0851729e+11 </wgt>
<wgt id='1483'> +3.0757216e+11 </wgt>
<wgt id='1484'> +3.0752128e+11 </wgt>
<wgt id='1485'> +3.0774745e+11 </wgt>
<wgt id='1486'> +3.0706680e+11 </wgt>
<wgt id='1487'> +3.0782683e+11 </wgt>
<wgt id='1488'> +3.0719728e+11 </wgt>
<wgt id='1489'> +3.0714941e+11 </wgt>
<wgt id='1490'> +3.0862881e+11 </wgt>
<wgt id='1491'> +3.1286086e+11 </wgt>
<wgt id='1492'> +3.0458989e+11 </wgt>
<wgt id='1493'> +3.0368112e+11 </wgt>
<wgt id='1494'> +3.1967633e+11 </wgt>
<wgt id='1495'> +3.0653163e+11 </wgt>
<wgt id='1496'> +3.0864034e+11 </wgt>
<wgt id='1497'> +3.0779092e+11 </wgt>
<wgt id='1498'> +3.0721668e+11 </wgt>
<wgt id='1499'> +3.0992604e+11 </wgt>
<wgt id='1500'> +3.0625175e+11 </wgt>
<wgt id='1501'> +3.0772662e+11 </wgt>
<wgt id='1502'> +3.0709545e+11 </wgt>
<wgt id='1503'> +3.0188109e+11 </wgt>
<wgt id='1504'> +3.1407533e+11 </wgt>
<wgt id='1505'> +3.0792999e+11 </wgt>
<wgt id='1506'> +3.0716745e+11 </wgt>
<wgt id='1507'> +3.1274361e+11 </wgt>
<wgt id='1508'> +2.9821649e+11 </wgt>
<wgt id='1509'> +3.0853998e+11 </wgt>
<wgt id='1510'> +3.0325489e+11 </wgt>
<wgt id='1511'> +3.0877776e+11 </wgt>
<wgt id='1512'> +3.0731282e+11 </wgt>
<wgt id='1513'> +3.0723706e+11 </wgt>
<wgt id='1514'> +3.0791147e+11 </wgt>
<wgt id='1515'> +3.1286098e+11 </wgt>
<wgt id='1516'> +3.0611215e+11 </wgt>
<wgt id='1517'> +3.0682063e+11 </wgt>
<wgt id='1518'> +3.0876991e+11 </wgt>
<wgt id='1519'> +3.0523482e+11 </wgt>
<wgt id='1520'> +3.0918188e+11 </wgt>
<wgt id='1521'> +3.0588418e+11 </wgt>
<wgt id='1522'> +3.0846288e+11 </wgt>
<wgt id='1523'> +3.0881676e+11 </wgt>
<wgt id='1524'> +3.0936858e+11 </wgt>
<wgt id='1525'> +3.0792826e+11 </wgt>
<wgt id='1526'> +3.0958606e+11 </wgt>
<wgt id='1527'> +3.0754787e+11 </wgt>
<wgt id='1528'> +3.0535712e+11 </wgt>
<wgt id='1529'> +3.0967651e+11 </wgt>
<wgt id='1530'> +3.0086908e+11 </wgt>
<wgt id='1531'> +3.1538222e+11 </wgt>
<wgt id='1532'> +3.1687240e+11 </wgt>
<wgt id='1533'> +3.0915526e+11 </wgt>
<wgt id='1534'> +3.1325825e+11 </wgt>
<wgt id='1535'> +3.1930755e+11 </wgt>
<wgt id='1536'> +3.1087439e+11 </wgt>
<wgt id='1537'> +3.1917902e+11 </wgt>
<wgt id='1538'> +3.1052027e+11 </wgt>
<wgt id='1539'> +3.2048510e+11 </wgt>
<wgt id='1540'> +3.1817353e+11 </wgt>
<wgt id='1541'> +3.1789586e+11 </wgt>
<wgt id='1542'> +3.1597753e+11 </wgt>
<wgt id='1543'> +3.1805966e+11 </wgt>
<wgt id='1544'> +3.1355625e+11 </wgt>
<wgt id='1545'> +3.1344008e+11 </wgt>
<wgt id='1546'> +3.1176396e+11 </wgt>
<wgt id='1547'> +3.1759166e+11 </wgt>
<wgt id='1548'> +3.1473050e+11 </wgt>
<wgt id='1549'> +3.1175088e+11 </wgt>
<wgt id='1550'> +3.1852559e+11 </wgt>
<wgt id='1551'> +3.1603309e+11 </wgt>
<wgt id='1552'> +3.1591976e+11 </wgt>
<wgt id='1553'> +3.2357897e+11 </wgt>
<wgt id='1554'> +3.1601722e+11 </wgt>
<wgt id='1555'> +3.1644843e+11 </wgt>
<wgt id='1556'> +3.1738296e+11 </wgt>
<wgt id='1557'> +3.1525839e+11 </wgt>
<wgt id='1558'> +3.1567426e+11 </wgt>
<wgt id='1559'> +3.1291039e+11 </wgt>
<wgt id='1560'> +3.1485923e+11 </wgt>
<wgt id='1561'> +3.1419962e+11 </wgt>
<wgt id='1562'> +3.1270941e+11 </wgt>
<wgt id='1563'> +3.1579766e+11 </wgt>
<wgt id='1564'> +3.1508044e+11 </wgt>
<wgt id='1565'> +3.1952374e+11 </wgt>
<wgt id='1566'> +3.1536185e+11 </wgt>
<wgt id='1567'> +3.1441059e+11 </wgt>
<wgt id='1568'> +3.1518229e+11 </wgt>
<wgt id='1569'> +3.1462827e+11 </wgt>
<wgt id='1570'> +3.2283385e+11 </wgt>
<wgt id='1571'> +3.1535621e+11 </wgt>
<wgt id='1572'> +3.1611091e+11 </wgt>
<wgt id='1573'> +3.2124364e+11 </wgt>
<wgt id='1574'> +2.4613572e+11 </wgt>
<wgt id='1575'> +2.4619827e+11 </wgt>
<wgt id='1576'> +2.4606632e+11 </wgt>
<wgt id='1577'> +2.4615334e+11 </wgt>
<wgt id='1578'> +2.4670336e+11 </wgt>
<wgt id='1579'> +2.4687960e+11 </wgt>
<wgt id='1580'> +2.4664113e+11 </wgt>
<wgt id='1581'> +2.4577836e+11 </wgt>
<wgt id='1582'> +2.4553743e+11 </wgt>
<wgt id='1583'> +2.4564856e+11 </wgt>
<wgt id='1584'> +2.4669426e+11 </wgt>
<wgt id='1585'> +2.4644947e+11 </wgt>
<wgt id='1586'> +2.4549667e+11 </wgt>
<wgt id='1587'> +2.4557545e+11 </wgt>
<wgt id='1588'> +2.4517443e+11 </wgt>
<wgt id='1589'> +2.4575443e+11 </wgt>
<wgt id='1590'> +2.4599755e+11 </wgt>
<wgt id='1591'> +2.4621873e+11 </wgt>
<wgt id='1592'> +2.4520913e+11 </wgt>
<wgt id='1593'> +2.4490610e+11 </wgt>
<wgt id='1594'> +2.4735908e+11 </wgt>
<wgt id='1595'> +2.4343244e+11 </wgt>
<wgt id='1596'> +2.5078635e+11 </wgt>
<wgt id='1597'> +2.4796476e+11 </wgt>
<wgt id='1598'> +2.4800808e+11 </wgt>
<wgt id='1599'> +2.4296451e+11 </wgt>
<wgt id='1600'> +2.5132011e+11 </wgt>
<wgt id='1601'> +2.4829084e+11 </wgt>
<wgt id='1602'> +2.4626438e+11 </wgt>
<wgt id='1603'> +2.6240866e+11 </wgt>
<wgt id='1604'> +2.4614979e+11 </wgt>
</rwgt>
</event>
<event>
 9      1 +2.8343000e+11 1.39999900e+03 7.81738600e-03 7.88881200e-02
       21 -1    0    0  504  503 +0.0000000000e+00 +0.0000000000e+00 +4.2989025719e+02 4.2989025719e+02 0.0000000000e+00 0.0000e+00 -1.0000e+00
       21 -1    0    0  503  504 -0.0000000000e+00 -0.0000000000e+00 -1.1398241771e+03 1.1398241771e+03 0.0000000000e+00 0.0000e+00 -1.0000e+00
       45  2    1    2    0    0 +0.0000000000e+00 -5.6843418861e-14 -7.0993391988e+02 1.5697144343e+03 1.3999990123e+03 0.0000e+00 0.0000e+00
       25  2    3    3    0    0 -5.3471795059e+02 +3.1495083772e+02 -6.9830709430e+02 9.4253638605e+02 1.2499889689e+02 0.0000e+00 0.0000e+00
       35  2    3    3    0    0 +5.3471795059e+02 -3.1495083772e+02 -1.1626825586e+01 6.2717804820e+02 8.9998912250e+01 0.0000e+00 0.0000e+00
        5  1    5    5  501    0 +4.8770032261e+02 -2.8641113905e+02 -3.6273465834e+01 5.6675962044e+02 4.2140000000e+00 0.0000e+00 -1.0000e+00
       -5  1    5    5    0  501 +4.7017627986e+01 -2.8539698672e+01 +2.4646640247e+01 6.0418427762e+01 4.2140000000e+00 0.0000e+00 -1.0000e+00
        5  1    4    4  502    0 -1.0119046944e+02 +8.2890977195e+00 -1.2449748858e+02 1.6070346202e+02 4.2140000000e+00 0.0000e+00 -1.0000e+00
       -5  1    4    4    0  502 -4.3352748115e+02 +3.0666174000e+02 -5.7380960572e+02 7.8183292403e+02 4.2140000000e+00 0.0000e+00 -1.0000e+00
<mgrwt>
<rscale>  0 0.13999990E+04</rscale>
<asrwt>0</asrwt>
<pdfrwt beam="1">  1       21 0.66136964E-01 0.13999990E+04</pdfrwt>
<pdfrwt beam="2">  1       21 0.17535756E+00 0.13999990E+04</pdfrwt>
<totfact> 0.29156317E+02</totfact>
</mgrwt>
<rwgt>
<wgt id='1001'> +2.8343000e+11 </wgt>
<wgt id='1002'> +2.8859435e+11 </wgt>
<wgt id='1003'> +2.8859101e+11 </wgt>
<wgt id='1004'> +3.2473660e+11 </wgt>
<wgt id='1005'> +2.8343000e+11 </wgt>
<wgt id='1006'> +2.8343000e+11 </wgt>
<wgt id='1007'> +2.8859435e+11 </wgt>
<wgt id='1008'> +2.8859101e+11 </wgt>
<wgt id='1009'> +3.2473660e+11 </wgt>
<wgt id='1010'> +2.8343000e+11 </wgt>
<wgt id='1011'> +2.8343000e+11 </wgt>
<wgt id='1012'> +2.8859435e+11 </wgt>
<wgt id='1013'> +2.8859101e+11 </wgt>
<wgt id='1014'> +3.2473660e+11 </wgt>
<wgt id='1015'> +2.8343000e+11 </wgt>
<wgt id='1016'> +2.5405734e+11 </wgt>
<wgt id='1017'> +2.5841595e+11 </wgt>
<wgt id='1018'> +2.5841313e+11 </wgt>
<wgt id='1019'> +2.8859101e+11 </wgt>
<wgt id='1020'> +2.5405734e+11 </wgt>
<wgt id='1021'> +2.5405734e+11 </wgt>
<wgt id='1022'> +2.5841595e+11 </wgt>
<wgt id='1023'> +2.5841313e+11 </wgt>
<wgt id='1024'> +2.8859101e+11 </wgt>
<wgt id='1025'> +2.5405734e+11 </wgt>
<wgt id='1026'> +2.5405734e+11 </wgt>
<wgt id='1027'> +2.5841595e+11 </wgt>
<wgt id='1028'> +2.5841313e+11 </wgt>
<wgt id='1029'> +2.8859101e+11 </wgt>
<wgt id='1030'> +2.5405734e+11 </wgt>
<wgt id='1031'> +3.1852528e+11 </wgt>
<wgt id='1032'> +3.2474062e+11 </wgt>
<wgt id='1033'> +3.2473660e+11 </wgt>
<wgt id='1034'> +3.6839095e+11 </wgt>
<wgt id='1035'> +3.1852528e+11 </wgt>
<wgt id='1036'> +3.1852528e+11 </wgt>
<wgt id='1037'> +3.2474062e+11 </wgt>
<wgt id='1038'> +3.2473660e+11 </wgt>
<wgt id='1039'> +3.6839095e+11 </wgt>
<wgt id='1040'> +3.1852528e+11 </wgt>
<wgt id='1041'> +3.1852528e+11 </wgt>
<wgt id='1042'> +3.2474062e+11 </wgt>
<wgt id='1043'> +3.2473660e+11 </wgt>
<wgt id='1044'> +3.6839095e+11 </wgt>
<wgt id='1045'> +3.1852528e+11 </wgt>
<wgt id='1046'> +2.8343000e+11 </wgt>
<wgt id='1047'> +2.8343000e+11 </wgt>
<wgt id='1048'> +2.8343000e+11 </wgt>
<wgt id='1049'> +2.8282105e+11 </wgt>
<wgt id='1050'> +2.8324226e+11 </wgt>
<wgt id='1051'> +2.8327062e+11 </wgt>
<wgt id='1052'> +2.8433941e+11 </wgt>
<wgt id='1053'> +2.8168088e+11 </wgt>
<wgt id='1054'> +2.8371625e+11 </wgt>
<wgt id='1055'> +2.8222009e+11 </wgt>
<wgt id='1056'> +2.8213306e+11 </wgt>
<wgt id='1057'> +2.8348285e+11 </wgt>
<wgt id='1058'> +2.8281702e+11 </wgt>
<wgt id='1059'> +2.8523378e+11 </wgt>
<wgt id='1060'> +2.8379818e+11 </wgt>
<wgt id='1061'> +2.8395562e+11 </wgt>
<wgt id='1062'> +2.8427384e+11 </wgt>
<wgt id='1063'> +2.8448589e+11 </wgt>
<wgt id='1064'> +2.8407940e+11 </wgt>
<wgt id='1065'> +2.8467000e+11 </wgt>
<wgt id='1066'> +2.8130662e+11 </wgt>
<wgt id='1067'> +2.8165720e+11 </wgt>
<wgt id='1068'> +2.8335714e+11 </wgt>
<wgt id='1069'> +2.8257826e+11 </wgt>
<wgt id='1070'> +2.8393043e+11 </wgt>
<wgt id='1071'> +2.8316050e+11 </wgt>
<wgt id='1072'> +2.8233838e+11 </wgt>
<wgt id='1073'> +2.8327367e+11 </wgt>
<wgt id='1074'> +2.8315211e+11 </wgt>
<wgt id='1075'> +2.8441417e+11 </wgt>
<wgt id='1076'> +2.8156399e+11 </wgt>
<wgt id='1077'> +2.8206102e+11 </wgt>
<wgt id='1078'> +2.8411867e+11 </wgt>
<wgt id='1079'> +2.8218491e+11 </wgt>
<wgt id='1080'> +2.8318729e+11 </wgt>
<wgt id='1081'> +2.8294225e+11 </wgt>
<wgt id='1082'> +2.8220656e+11 </wgt>
<wgt id='1083'> +2.8396879e+11 </wgt>
<wgt id='1084'> +2.8391626e+11 </wgt>
<wgt id='1085'> +2.8273807e+11 </wgt>
<wgt id='1086'> +2.8316337e+11 </wgt>
<wgt id='1087'> +2.8319812e+11 </wgt>
<wgt id='1088'> +2.8295571e+11 </wgt>
<wgt id='1089'> +2.8259061e+11 </wgt>
<wgt id='1090'> +2.8408155e+11 </wgt>
<wgt id='1091'> +2.8352664e+11 </wgt>
<wgt id='1092'> +2.8375056e+11 </wgt>
<wgt id='1093'> +2.8340663e+11 </wgt>
<wgt id='1094'> +2.8263365e+11 </wgt>
<wgt id='1095'> +2.8363483e+11 </wgt>
<wgt id='1096'> +2.8342334e+11 </wgt>
<wgt id='1097'> +2.8295760e+11 </wgt>
<wgt id='1098'> +2.8312440e+11 </wgt>
<wgt id='1099'> +2.8318768e+11 </wgt>
<wgt id='1100'> +2.8405648e+11 </wgt>
<wgt id='1101'> +2.8348963e+11 </wgt>
<wgt id='1102'> +2.8332858e+11 </wgt>
<wgt id='1103'> +2.8290935e+11 </wgt>
<wgt id='1104'> +2.8319936e+11 </wgt>
<wgt id='1105'> +2.8352414e+11 </wgt>
<wgt id='1106'> +2.8376363e+11 </wgt>
<wgt id='1107'> +2.8350483e+11 </wgt>
<wgt id='1108'> +2.8325095e+11 </wgt>
<wgt id='1109'> +2.8323335e+11 </wgt>
<wgt id='1110'> +2.8371413e+11 </wgt>
<wgt id='1111'> +2.8359592e+11 </wgt>
<wgt id='1112'> +2.8338349e+11 </wgt>
<wgt id='1113'> +2.8376814e+11 </wgt>
<wgt id='1114'> +2.8312998e+11 </wgt>
<wgt id='1115'> +2.8311082e+11 </wgt>
<wgt id='1116'> +2.8393454e+11 </wgt>
<wgt id='1117'> +2.8335991e+11 </wgt>
<wgt id='1118'> +2.8363702e+11 </wgt>
<wgt id='1119'> +2.8312420e+11 </wgt>
<wgt id='1120'> +2.8318467e+11 </wgt>
<wgt id='1121'> +2.8351568e+11 </wgt>
<wgt id='1122'> +2.8315835e+11 </wgt>
<wgt id='1123'> +2.8337750e+11 </wgt>
<wgt id='1124'> +2.8341688e+11 </wgt>
<wgt id='1125'> +2.8361420e+11 </wgt>
<wgt id='1126'> +2.8354395e+11 </wgt>
<wgt id='1127'> +2.8328881e+11 </wgt>
<wgt id='1128'> +2.8341712e+11 </wgt>
<wgt id='1129'> +2.8332184e+11 </wgt>
<wgt id='1130'> +2.8346028e+11 </wgt>
<wgt id='1131'> +2.8384123e+11 </wgt>
<wgt id='1132'> +2.8334389e+11 </wgt>
<wgt id='1133'> +2.8354699e+11 </wgt>
<wgt id='1134'> +2.8342050e+11 </wgt>
<wgt id='1135'> +2.8346647e+11 </wgt>
<wgt id='1136'> +2.8335680e+11 </wgt>
<wgt id='1137'> +2.8324232e+11 </wgt>
<wgt id='1138'> +2.8356639e+11 </wgt>
<wgt id='1139'> +2.8349487e+11 </wgt>
<wgt id='1140'> +2.8367217e+11 </wgt>
<wgt id='1141'> +2.8323332e+11 </wgt>
<wgt id='1142'> +2.8348262e+11 </wgt>
<wgt id='1143'> +2.8361025e+11 </wgt>
<wgt id='1144'> +2.8332952e+11 </wgt>
<wgt id='1145'> +2.8357211e+11 </wgt>
<wgt id='1146'> +2.8346203e+11 </wgt>
<wgt id='1147'> +2.8348620e+11 </wgt>
<wgt id='1148'> +2.8343000e+11 </wgt>
<wgt id='1149'> +2.8343000e+11 </wgt>
<wgt id='1150'> +2.9714715e+11 </wgt>
<wgt id='1151'> +2.7753406e+11 </wgt>
<wgt id='1152'> +2.7727360e+11 </wgt>
<wgt id='1153'> +2.8600525e+11 </wgt>
<wgt id='1154'> +2.8247845e+11 </wgt>
<wgt id='1155'> +2.9290339e+11 </wgt>
<wgt id='1156'> +2.7771113e+11 </wgt>
<wgt id='1157'> +2.7454930e+11 </wgt>
<wgt id='1158'> +2.7705383e+11 </wgt>
<wgt id='1159'> +3.0000557e+11 </wgt>
<wgt id='1160'> +2.8504670e+11 </wgt>
<wgt id='1161'> +2.8771304e+11 </wgt>
<wgt id='1162'> +2.8445851e+11 </wgt>
<wgt id='1163'> +2.8631544e+11 </wgt>
<wgt id='1164'> +2.7288199e+11 </wgt>
<wgt id='1165'> +2.7795394e+11 </wgt>
<wgt id='1166'> +2.8320093e+11 </wgt>
<wgt id='1167'> +2.7802619e+11 </wgt>
<wgt id='1168'> +2.7450001e+11 </wgt>
<wgt id='1169'> +2.7583048e+11 </wgt>
<wgt id='1170'> +2.8373581e+11 </wgt>
<wgt id='1171'> +2.7294735e+11 </wgt>
<wgt id='1172'> +2.7487342e+11 </wgt>
<wgt id='1173'> +2.8553544e+11 </wgt>
<wgt id='1174'> +2.7696494e+11 </wgt>
<wgt id='1175'> +2.7811622e+11 </wgt>
<wgt id='1176'> +2.8671298e+11 </wgt>
<wgt id='1177'> +2.7808477e+11 </wgt>
<wgt id='1178'> +2.8387844e+11 </wgt>
<wgt id='1179'> +2.8315515e+11 </wgt>
<wgt id='1180'> +2.8864462e+11 </wgt>
<wgt id='1181'> +2.8852076e+11 </wgt>
<wgt id='1182'> +2.8006350e+11 </wgt>
<wgt id='1183'> +2.9012203e+11 </wgt>
<wgt id='1184'> +2.8265426e+11 </wgt>
<wgt id='1185'> +2.8747632e+11 </wgt>
<wgt id='1186'> +2.7702546e+11 </wgt>
<wgt id='1187'> +2.8428759e+11 </wgt>
<wgt id='1188'> +2.8745091e+11 </wgt>
<wgt id='1189'> +2.8208223e+11 </wgt>
<wgt id='1190'> +2.8106688e+11 </wgt>
<wgt id='1191'> +2.9077795e+11 </wgt>
<wgt id='1192'> +2.8876965e+11 </wgt>
<wgt id='1193'> +2.9099996e+11 </wgt>
<wgt id='1194'> +2.8057467e+11 </wgt>
<wgt id='1195'> +2.8461533e+11 </wgt>
<wgt id='1196'> +2.9153297e+11 </wgt>
<wgt id='1197'> +2.9108443e+11 </wgt>
<wgt id='1198'> +2.8449920e+11 </wgt>
<wgt id='1199'> +2.8781408e+11 </wgt>
<wgt id='1200'> +2.8742323e+11 </wgt>
<wgt id='1201'> +2.8061952e+11 </wgt>
<wgt id='1202'> +2.8642066e+11 </wgt>
<wgt id='1203'> +2.8155221e+11 </wgt>
<wgt id='1204'> +2.8266858e+11 </wgt>
<wgt id='1205'> +2.8378049e+11 </wgt>
<wgt id='1206'> +2.7962517e+11 </wgt>
<wgt id='1207'> +2.9118213e+11 </wgt>
<wgt id='1208'> +2.7067960e+11 </wgt>
<wgt id='1209'> +2.8321759e+11 </wgt>
<wgt id='1210'> +2.8582250e+11 </wgt>
<wgt id='1211'> +2.8425613e+11 </wgt>
<wgt id='1212'> +2.8307451e+11 </wgt>
<wgt id='1213'> +2.8888732e+11 </wgt>
<wgt id='1214'> +2.7754633e+11 </wgt>
<wgt id='1215'> +2.8434931e+11 </wgt>
<wgt id='1216'> +2.8127633e+11 </wgt>
<wgt id='1217'> +2.7802116e+11 </wgt>
<wgt id='1218'> +2.8490750e+11 </wgt>
<wgt id='1219'> +2.9361010e+11 </wgt>
<wgt id='1220'> +2.7958036e+11 </wgt>
<wgt id='1221'> +2.7667348e+11 </wgt>
<wgt id='1222'> +2.7870022e+11 </wgt>
<wgt id='1223'> +2.7327737e+11 </wgt>
<wgt id='1224'> +2.8274787e+11 </wgt>
<wgt id='1225'> +2.8734641e+11 </wgt>
<wgt id='1226'> +2.8665309e+11 </wgt>
<wgt id='1227'> +2.7963358e+11 </wgt>
<wgt id='1228'> +2.8221155e+11 </wgt>
<wgt id='1229'> +3.0103859e+11 </wgt>
<wgt id='1230'> +2.8983187e+11 </wgt>
<wgt id='1231'> +2.7795394e+11 </wgt>
<wgt id='1232'> +2.8736252e+11 </wgt>
<wgt id='1233'> +2.7645510e+11 </wgt>
<wgt id='1234'> +2.7767186e+11 </wgt>
<wgt id='1235'> +2.9979789e+11 </wgt>
<wgt id='1236'> +2.7765224e+11 </wgt>
<wgt id='1237'> +2.8921577e+11 </wgt>
<wgt id='1238'> +2.8244201e+11 </wgt>
<wgt id='1239'> +2.8661275e+11 </wgt>
<wgt id='1240'> +2.7852408e+11 </wgt>
<wgt id='1241'> +2.8571143e+11 </wgt>
<wgt id='1242'> +2.8005187e+11 </wgt>
<wgt id='1243'> +2.8563275e+11 </wgt>
<wgt id='1244'> +2.8704285e+11 </wgt>
<wgt id='1245'> +2.7862347e+11 </wgt>
<wgt id='1246'> +3.0463110e+11 </wgt>
<wgt id='1247'> +2.8153356e+11 </wgt>
<wgt id='1248'> +2.7329477e+11 </wgt>
<wgt id='1249'> +2.7576400e+11 </wgt>
<wgt id='1250'> +2.9310396e+11 </wgt>
<wgt id='1251'> +3.0073970e+11 </wgt>
<wgt id='1252'> +2.8794330e+11 </wgt>
<wgt id='1253'> +2.8961782e+11 </wgt>
<wgt id='1254'> +2.8895089e+11 </wgt>
<wgt id='1255'> +3.0173179e+11 </wgt>
<wgt id='1256'> +3.0189528e+11 </wgt>
<wgt id='1257'> +2.9759351e+11 </wgt>
<wgt id='1258'> +2.9432907e+11 </wgt>
<wgt id='1259'> +3.0096974e+11 </wgt>
<wgt id='1260'> +3.2670224e+11 </wgt>
<wgt id='1261'> +3.1425372e+11 </wgt>
<wgt id='1262'> +2.9275424e+11 </wgt>
<wgt id='1263'> +2.9857774e+11 </wgt>
<wgt id='1264'> +3.0150027e+11 </wgt>
<wgt id='1265'> +2.9510483e+11 </wgt>
<wgt id='1266'> +3.0182663e+11 </wgt>
<wgt id='1267'> +3.3770790e+11 </wgt>
<wgt id='1268'> +2.9050520e+11 </wgt>
<wgt id='1269'> +2.8687026e+11 </wgt>
<wgt id='1270'> +3.0105580e+11 </wgt>
<wgt id='1271'> +2.7009866e+11 </wgt>
<wgt id='1272'> +2.9311932e+11 </wgt>
<wgt id='1273'> +2.9079729e+11 </wgt>
<wgt id='1274'> +2.8650802e+11 </wgt>
<wgt id='1275'> +2.9515158e+11 </wgt>
<wgt id='1276'> +3.0071805e+11 </wgt>
<wgt id='1277'> +2.9577978e+11 </wgt>
<wgt id='1278'> +2.9646734e+11 </wgt>
<wgt id='1279'> +2.7988786e+11 </wgt>
<wgt id='1280'> +2.8710203e+11 </wgt>
<wgt id='1281'> +2.8505673e+11 </wgt>
<wgt id='1282'> +2.9549430e+11 </wgt>
<wgt id='1283'> +3.0566985e+11 </wgt>
<wgt id='1284'> +3.1034628e+11 </wgt>
<wgt id='1285'> +3.0813347e+11 </wgt>
<wgt id='1286'> +3.2961632e+11 </wgt>
<wgt id='1287'> +3.0653803e+11 </wgt>
<wgt id='1288'> +3.3090556e+11 </wgt>
<wgt id='1289'> +3.1393509e+11 </wgt>
<wgt id='1290'> +3.1218810e+11 </wgt>
<wgt id='1291'> +2.7818037e+11 </wgt>
<wgt id='1292'> +3.0139637e+11 </wgt>
<wgt id='1293'> +3.0254559e+11 </wgt>
<wgt id='1294'> +3.2040939e+11 </wgt>
<wgt id='1295'> +3.0763361e+11 </wgt>
<wgt id='1296'> +3.2480752e+11 </wgt>
<wgt id='1297'> +2.9216299e+11 </wgt>
<wgt id='1298'> +2.8820490e+11 </wgt>
<wgt id='1299'> +3.0257059e+11 </wgt>
<wgt id='1300'> +2.8582690e+11 </wgt>
<wgt id='1301'> +2.7934602e+11 </wgt>
<wgt id='1302'> +2.8185557e+11 </wgt>
<wgt id='1303'> +3.0182745e+11 </wgt>
<wgt id='1304'> +3.1985154e+11 </wgt>
<wgt id='1305'> +2.9846300e+11 </wgt>
<wgt id='1306'> +3.0584373e+11 </wgt>
<wgt id='1307'> +2.9269624e+11 </wgt>
<wgt id='1308'> +3.2908310e+11 </wgt>
<wgt id='1309'> +2.9919196e+11 </wgt>
<wgt id='1310'> +3.0295277e+11 </wgt>
<wgt id='1311'> +3.0114547e+11 </wgt>
<wgt id='1312'> +3.0848971e+11 </wgt>
<wgt id='1313'> +3.0152765e+11 </wgt>
<wgt id='1314'> +2.9713533e+11 </wgt>
<wgt id='1315'> +2.8702509e+11 </wgt>
<wgt id='1316'> +2.9960052e+11 </wgt>
<wgt id='1317'> +3.0812787e+11 </wgt>
<wgt id='1318'> +2.9070371e+11 </wgt>
<wgt id='1319'> +2.9881036e+11 </wgt>
<wgt id='1320'> +3.1494031e+11 </wgt>
<wgt id='1321'> +2.9906871e+11 </wgt>
<wgt id='1322'> +3.0508040e+11 </wgt>
<wgt id='1323'> +2.9235902e+11 </wgt>
<wgt id='1324'> +3.0563455e+11 </wgt>
<wgt id='1325'> +3.1209096e+11 </wgt>
<wgt id='1326'> +3.0767076e+11 </wgt>
<wgt id='1327'> +3.0766637e+11 </wgt>
<wgt id='1328'> +2.9810029e+11 </wgt>
<wgt id='1329'> +2.9792006e+11 </wgt>
<wgt id='1330'> +2.8674472e+11 </wgt>
<wgt id='1331'> +3.2179975e+11 </wgt>
<wgt id='1332'> +2.9369272e+11 </wgt>
<wgt id='1333'> +3.0184830e+11 </wgt>
<wgt id='1334'> +3.1612438e+11 </wgt>
<wgt id='1335'> +2.9279120e+11 </wgt>
<wgt id='1336'> +3.1188987e+11 </wgt>
<wgt id='1337'> +3.0887982e+11 </wgt>
<wgt id='1338'> +2.8814271e+11 </wgt>
<wgt id='1339'> +3.1660388e+11 </wgt>
<wgt id='1340'> +3.0583150e+11 </wgt>
<wgt id='1341'> +3.1705826e+11 </wgt>
<wgt id='1342'> +3.0643410e+11 </wgt>
<wgt id='1343'> +3.0913207e+11 </wgt>
<wgt id='1344'> +3.1334224e+11 </wgt>
<wgt id='1345'> +2.6856140e+11 </wgt>
<wgt id='1346'> +3.0311497e+11 </wgt>
<wgt id='1347'> +2.9074823e+11 </wgt>
<wgt id='1348'> +2.8972164e+11 </wgt>
<wgt id='1349'> +2.8757729e+11 </wgt>
<wgt id='1350'> +3.0616852e+11 </wgt>
<wgt id='1351'> +2.9277980e+11 </wgt>
<wgt id='1352'> +3.0286496e+11 </wgt>
<wgt id='1353'> +2.9965668e+11 </wgt>
<wgt id='1354'> +3.0889013e+11 </wgt>
<wgt id='1355'> +2.7709428e+11 </wgt>
<wgt id='1356'> +2.7975426e+11 </wgt>
<wgt id='1357'> +2.7747290e+11 </wgt>
<wgt id='1358'> +2.7523858e+11 </wgt>
<wgt id='1359'> +2.7687061e+11 </wgt>
<wgt id='1360'> +2.7182037e+11 </wgt>
<wgt id='1361'> +2.7617955e+11 </wgt>
<wgt id='1362'> +2.8309105e+11 </wgt>
<wgt id='1363'> +2.7379821e+11 </wgt>
<wgt id='1364'> +2.8212526e+11 </wgt>
<wgt id='1365'> +2.7492947e+11 </wgt>
<wgt id='1366'> +2.7430201e+11 </wgt>
<wgt id='1367'> +2.7728826e+11 </wgt>
<wgt id='1368'> +2.7748410e+11 </wgt>
<wgt id='1369'> +2.8023413e+11 </wgt>
<wgt id='1370'> +2.7459231e+11 </wgt>
<wgt id='1371'> +2.7707112e+11 </wgt>
<wgt id='1372'> +2.7949942e+11 </wgt>
<wgt id='1373'> +2.8032430e+11 </wgt>
<wgt id='1374'> +2.6955019e+11 </wgt>
<wgt id='1375'> +2.7772231e+11 </wgt>
<wgt id='1376'> +2.7661133e+11 </wgt>
<wgt id='1377'> +2.7766054e+11 </wgt>
<wgt id='1378'> +2.7581946e+11 </wgt>
<wgt id='1379'> +2.7556777e+11 </wgt>
<wgt id='1380'> +2.7473009e+11 </wgt>
<wgt id='1381'> +2.8187797e+11 </wgt>
<wgt id='1382'> +2.7617613e+11 </wgt>
<wgt id='1383'> +2.7519678e+11 </wgt>
<wgt id='1384'> +2.7383252e+11 </wgt>
<wgt id='1385'> +2.7336020e+11 </wgt>
<wgt id='1386'> +2.7637202e+11 </wgt>
<wgt id='1387'> +2.7543422e+11 </wgt>
<wgt id='1388'> +2.7255219e+11 </wgt>
<wgt id='1389'> +2.7598932e+11 </wgt>
<wgt id='1390'> +2.7850899e+11 </wgt>
<wgt id='1391'> +2.7533263e+11 </wgt>
<wgt id='1392'> +2.7417491e+11 </wgt>
<wgt id='1393'> +2.7716598e+11 </wgt>
<wgt id='1394'> +2.7557686e+11 </wgt>
<wgt id='1395'> +2.7232907e+11 </wgt>
<wgt id='1396'> +2.7763403e+11 </wgt>
<wgt id='1397'> +2.7786390e+11 </wgt>
<wgt id='1398'> +2.7925959e+11 </wgt>
<wgt id='1399'> +2.7437040e+11 </wgt>
<wgt id='1400'> +2.7273006e+11 </wgt>
<wgt id='1401'> +2.7737786e+11 </wgt>
<wgt id='1402'> +2.7983861e+11 </wgt>
<wgt id='1403'> +2.8350945e+11 </wgt>
<wgt id='1404'> +2.7858700e+11 </wgt>
<wgt id='1405'> +2.8358827e+11 </wgt>
<wgt id='1406'> +2.7883842e+11 </wgt>
<wgt id='1407'> +2.7746983e+11 </wgt>
<wgt id='1408'> +2.8227278e+11 </wgt>
<wgt id='1409'> +2.7334927e+11 </wgt>
<wgt id='1410'> +2.7092167e+11 </wgt>
<wgt id='1411'> +2.7682038e+11 </wgt>
<wgt id='1412'> +2.7540030e+11 </wgt>
<wgt id='1413'> +2.7636122e+11 </wgt>
<wgt id='1414'> +2.7952873e+11 </wgt>
<wgt id='1415'> +2.7976825e+11 </wgt>
<wgt id='1416'> +2.7918932e+11 </wgt>
<wgt id='1417'> +2.7328758e+11 </wgt>
<wgt id='1418'> +2.7717662e+11 </wgt>
<wgt id='1419'> +2.8082419e+11 </wgt>
<wgt id='1420'> +2.7467850e+11 </wgt>
<wgt id='1421'> +2.8333967e+11 </wgt>
<wgt id='1422'> +2.7023703e+11 </wgt>
<wgt id='1423'> +2.8177529e+11 </wgt>
<wgt id='1424'> +2.7816205e+11 </wgt>
<wgt id='1425'> +2.7768471e+11 </wgt>
<wgt id='1426'> +2.7938947e+11 </wgt>
<wgt id='1427'> +2.7642064e+11 </wgt>
<wgt id='1428'> +2.7627422e+11 </wgt>
<wgt id='1429'> +2.7638816e+11 </wgt>
<wgt id='1430'> +2.7322536e+11 </wgt>
<wgt id='1431'> +2.7223986e+11 </wgt>
<wgt id='1432'> +2.7621038e+11 </wgt>
<wgt id='1433'> +2.7497635e+11 </wgt>
<wgt id='1434'> +2.8455278e+11 </wgt>
<wgt id='1435'> +2.7607578e+11 </wgt>
<wgt id='1436'> +2.8086212e+11 </wgt>
<wgt id='1437'> +2.7725916e+11 </wgt>
<wgt id='1438'> +2.7629792e+11 </wgt>
<wgt id='1439'> +2.8103211e+11 </wgt>
<wgt id='1440'> +2.7961917e+11 </wgt>
<wgt id='1441'> +2.7458899e+11 </wgt>
<wgt id='1442'> +2.8196128e+11 </wgt>
<wgt id='1443'> +2.7452618e+11 </wgt>
<wgt id='1444'> +2.7937944e+11 </wgt>
<wgt id='1445'> +2.7804956e+11 </wgt>
<wgt id='1446'> +2.8257046e+11 </wgt>
<wgt id='1447'> +2.7486975e+11 </wgt>
<wgt id='1448'> +2.7955899e+11 </wgt>
<wgt id='1449'> +2.7983575e+11 </wgt>
<wgt id='1450'> +2.7630803e+11 </wgt>
<wgt id='1451'> +2.7831999e+11 </wgt>
<wgt id='1452'> +2.7932964e+11 </wgt>
<wgt id='1453'> +2.7892269e+11 </wgt>
<wgt id='1454'> +2.6926949e+11 </wgt>
<wgt id='1455'> +2.7589360e+11 </wgt>
<wgt id='1456'> +2.7602251e+11 </wgt>
<wgt id='1457'> +2.7618144e+11 </wgt>
<wgt id='1458'> +2.8144623e+11 </wgt>
<wgt id='1459'> +3.0895234e+11 </wgt>
<wgt id='1460'> +3.0403018e+11 </wgt>
<wgt id='1461'> +3.5812353e+11 </wgt>
<wgt id='1462'> +2.9931313e+11 </wgt>
<wgt id='1463'> +2.9954477e+11 </wgt>
<wgt id='1464'> +2.9901604e+11 </wgt>
<wgt id='1465'> +2.9937787e+11 </wgt>
<wgt id='1466'> +2.9925399e+11 </wgt>
<wgt id='1467'> +2.9944670e+11 </wgt>
<wgt id='1468'> +2.9909395e+11 </wgt>
<wgt id='1469'> +2.9887586e+11 </wgt>
<wgt id='1470'> +2.9966826e+11 </wgt>
<wgt id='1471'> +2.9977198e+11 </wgt>
<wgt id='1472'> +2.9884051e+11 </wgt>
<wgt id='1473'> +3.0048697e+11 </wgt>
<wgt id='1474'> +2.9818565e+11 </wgt>
<wgt id='1475'> +3.0042812e+11 </wgt>
<wgt id='1476'> +2.9852267e+11 </wgt>
<wgt id='1477'> +2.9875763e+11 </wgt>
<wgt id='1478'> +3.0061086e+11 </wgt>
<wgt id='1479'> +2.9887997e+11 </wgt>
<wgt id='1480'> +2.9961817e+11 </wgt>
<wgt id='1481'> +2.9882979e+11 </wgt>
<wgt id='1482'> +2.9996598e+11 </wgt>
<wgt id='1483'> +2.9939231e+11 </wgt>
<wgt id='1484'> +2.9920225e+11 </wgt>
<wgt id='1485'> +2.9952159e+11 </wgt>
<wgt id='1486'> +2.9881110e+11 </wgt>
<wgt id='1487'> +2.9958528e+11 </wgt>
<wgt id='1488'> +2.9897285e+11 </wgt>
<wgt id='1489'> +2.9894991e+11 </wgt>
<wgt id='1490'> +3.0029800e+11 </wgt>
<wgt id='1491'> +3.0426434e+11 </wgt>
<wgt id='1492'> +2.9655254e+11 </wgt>
<wgt id='1493'> +2.9573616e+11 </wgt>
<wgt id='1494'> +3.1052953e+11 </wgt>
<wgt id='1495'> +2.9858277e+11 </wgt>
<wgt id='1496'> +3.0009703e+11 </wgt>
<wgt id='1497'> +2.9951402e+11 </wgt>
<wgt id='1498'> +2.9903863e+11 </wgt>
<wgt id='1499'> +3.0128028e+11 </wgt>
<wgt id='1500'> +2.9823801e+11 </wgt>
<wgt id='1501'> +2.9972884e+11 </wgt>
<wgt id='1502'> +2.9821350e+11 </wgt>
<wgt id='1503'> +2.9570269e+11 </wgt>
<wgt id='1504'> +3.0324901e+11 </wgt>
<wgt id='1505'> +3.0017268e+11 </wgt>
<wgt id='1506'> +2.9847504e+11 </wgt>
<wgt id='1507'> +3.0155336e+11 </wgt>
<wgt id='1508'> +2.9646791e+11 </wgt>
<wgt id='1509'> +2.9998381e+11 </wgt>
<wgt id='1510'> +2.9642815e+11 </wgt>
<wgt id='1511'> +3.0049152e+11 </wgt>
<wgt id='1512'> +2.9895411e+11 </wgt>
<wgt id='1513'> +2.9919992e+11 </wgt>
<wgt id='1514'> +2.9944142e+11 </wgt>
<wgt id='1515'> +3.0231670e+11 </wgt>
<wgt id='1516'> +2.9937655e+11 </wgt>
<wgt id='1517'> +2.9887473e+11 </wgt>
<wgt id='1518'> +2.9979717e+11 </wgt>
<wgt id='1519'> +2.9751481e+11 </wgt>
<wgt id='1520'> +3.0058987e+11 </wgt>
<wgt id='1521'> +2.9833266e+11 </wgt>
<wgt id='1522'> +2.9988069e+11 </wgt>
<wgt id='1523'> +3.0056412e+11 </wgt>
<wgt id='1524'> +3.0082489e+11 </wgt>
<wgt id='1525'> +3.0029882e+11 </wgt>
<wgt id='1526'> +3.0042396e+11 </wgt>
<wgt id='1527'> +2.9931313e+11 </wgt>
<wgt id='1528'> +2.9871903e+11 </wgt>
<wgt id='1529'> +2.9948932e+11 </wgt>
<wgt id='1530'> +2.9554065e+11 </wgt>
<wgt id='1531'> +2.9911957e+11 </wgt>
<wgt id='1532'> +2.9744632e+11 </wgt>
<wgt id='1533'> +2.9414478e+11 </wgt>
<wgt id='1534'> +2.9757709e+11 </wgt>
<wgt id='1535'> +3.0189416e+11 </wgt>
<wgt id='1536'> +2.9624907e+11 </wgt>
<wgt id='1537'> +2.9969839e+11 </wgt>
<wgt id='1538'> +2.9567677e+11 </wgt>
<wgt id='1539'> +3.0465178e+11 </wgt>
<wgt id='1540'> +2.9924214e+11 </wgt>
<wgt id='1541'> +3.0015833e+11 </wgt>
<wgt id='1542'> +2.9915617e+11 </wgt>
<wgt id='1543'> +3.0055457e+11 </wgt>
<wgt id='1544'> +2.9733200e+11 </wgt>
<wgt id='1545'> +2.9710388e+11 </wgt>
<wgt id='1546'> +2.9522569e+11 </wgt>
<wgt id='1547'> +3.0143634e+11 </wgt>
<wgt id='1548'> +2.9751875e+11 </wgt>
<wgt id='1549'> +2.9564645e+11 </wgt>
<wgt id='1550'> +3.0047959e+11 </wgt>
<wgt id='1551'> +2.9972002e+11 </wgt>
<wgt id='1552'> +2.9887417e+11 </wgt>
<wgt id='1553'> +3.0215182e+11 </wgt>
<wgt id='1554'> +2.9911659e+11 </wgt>
<wgt id='1555'> +2.9991489e+11 </wgt>
<wgt id='1556'> +3.0136025e+11 </wgt>
<wgt id='1557'> +2.9842675e+11 </wgt>
<wgt id='1558'> +2.9934263e+11 </wgt>
<wgt id='1559'> +2.9671963e+11 </wgt>
<wgt id='1560'> +2.9786345e+11 </wgt>
<wgt id='1561'> +2.9626263e+11 </wgt>
<wgt id='1562'> +2.9764733e+11 </wgt>
<wgt id='1563'> +2.9926838e+11 </wgt>
<wgt id='1564'> +2.9873164e+11 </wgt>
<wgt id='1565'> +3.0146199e+11 </wgt>
<wgt id='1566'> +2.9915048e+11 </wgt>
<wgt id='1567'> +3.0186447e+11 </wgt>
<wgt id='1568'> +2.9901420e+11 </wgt>
<wgt id='1569'> +2.9866510e+11 </wgt>
<wgt id='1570'> +3.0507985e+11 </wgt>
<wgt id='1571'> +2.9906328e+11 </wgt>
<wgt id='1572'> +3.0112448e+11 </wgt>
<wgt id='1573'> +3.0265569e+11 </wgt>
<wgt id='1574'> +2.5819652e+11 </wgt>
<wgt id='1575'> +2.5826554e+11 </wgt>
<wgt id='1576'> +2.5812853e+11 </wgt>
<wgt id='1577'> +2.5821456e+11 </wgt>
<wgt id='1578'> +2.5879222e+11 </wgt>
<wgt id='1579'> +2.5902502e+11 </wgt>
<wgt id='1580'> +2.5879334e+11 </wgt>
<wgt id='1581'> +2.5765050e+11 </wgt>
<wgt id='1582'> +2.5736531e+11 </wgt>
<wgt id='1583'> +2.5774928e+11 </wgt>
<wgt id='1584'> +2.5876496e+11 </wgt>
<wgt id='1585'> +2.5841429e+11 </wgt>
<wgt id='1586'> +2.5729250e+11 </wgt>
<wgt id='1587'> +2.5748979e+11 </wgt>
<wgt id='1588'> +2.5702074e+11 </wgt>
<wgt id='1589'> +2.5791054e+11 </wgt>
<wgt id='1590'> +2.5803068e+11 </wgt>
<wgt id='1591'> +2.5827147e+11 </wgt>
<wgt id='1592'> +2.5719433e+11 </wgt>
<wgt id='1593'> +2.5720908e+11 </wgt>
<wgt id='1594'> +2.5914222e+11 </wgt>
<wgt id='1595'> +2.5579930e+11 </wgt>
<wgt id='1596'> +2.6214317e+11 </wgt>
<wgt id='1597'> +2.5998026e+11 </wgt>
<wgt id='1598'> +2.6015193e+11 </wgt>
<wgt id='1599'> +2.5530478e+11 </wgt>
<wgt id='1600'> +2.6288995e+11 </wgt>
<wgt id='1601'> +2.6034878e+11 </wgt>
<wgt id='1602'> +2.5824047e+11 </wgt>
<wgt id='1603'> +2.7052944e+11 </wgt>
<wgt id='1604'> +2.5834702e+11 </wgt>
</rwgt>
</event>
<event>
 9      1 +2.8343000e+11 1.40000200e+03 7.81738600e-03 7.88881000e-02
       21 -1    0    0  504  503 +0.0000000000e+00 +0.0000000000e+00 +1.0626453998e+03 1.0626453998e+03 0.0000000000e+00 0.0000e+00 1.0000e+00
       21 -1    0    0  503  504 -0.0000000000e+00 -0.0000000000e+00 -4.6111473966e+02 4.6111473966e+02 0.0000000000e+00 0.0000e+00 1.0000e+00
       45  2    1    2    0    0 +0.0000000000e+00 +0.0000000000e+00 +6.0153066009e+02 1.5237601394e+03 1.4000020812e+03 0.0000e+00 0.0000e+00
       25  2    3    3    0    0 +3.3485881558e+02 -5.3754983606e+02 -2.0857714246e-01 6.4553444971e+02 1.2499771849e+02 0.0000e+00 0.0000e+00
       35  2    3    3    0    0 -3.3485881558e+02 +5.3754983606e+02 +6.0173923723e+02 8.7822568971e+02 8.9999998959e+01 0.0000e+00 0.0000e+00
        5  1    5    5  501    0 -1.0415784044e+02 +2.3759296860e+02 +2.7729251890e+02 3.7974751255e+02 4.2140000000e+00 0.0000e+00 -1.0000e+00
       -5  1    5    5    0  501 -2.3070097514e+02 +2.9995686747e+02 +3.2444671833e+02 4.9847817716e+02 4.2140000000e+00 0.0000e+00 -1.0000e+00
        5  1    4    4  502    0 +9.0462386924e+01 -2.2696839125e+02 +4.2375280873e+01 2.4801515337e+02 4.2140000000e+00 0.0000e+00 1.0000e+00
       -5  1    4    4    0  502 +2.4439642866e+02 -3.1058144482e+02 -4.2583858015e+01 3.9751929634e+02 4.2140000000e+00 0.0000e+00 1.0000e+00
<mgrwt>
<rscale>  0 0.14000021E+04</rscale>
<asrwt>0</asrwt>
<pdfrwt beam="1">  1       21 0.16348391E+00 0.14000021E+04</pdfrwt>
<pdfrwt beam="2">  1       21 0.70940730E-01 0.14000021E+04</pdfrwt>
<totfact> 0.30871395E+02</totfact>
</mgrwt>
<rwgt>
<wgt id='1001'> +2.8343000e+11 </wgt>
<wgt id='1002'> +2.8766852e+11 </wgt>
<wgt id='1003'> +2.8766744e+11 </wgt>
<wgt id='1004'> +3.2341770e+11 </wgt>
<wgt id='1005'> +2.8343000e+11 </wgt>
<wgt id='1006'> +2.8343000e+11 </wgt>
<wgt id='1007'> +2.8766852e+11 </wgt>
<wgt id='1008'> +2.8766744e+11 </wgt>
<wgt id='1009'> +3.2341770e+11 </wgt>
<wgt id='1010'> +2.8343000e+11 </wgt>
<wgt id='1011'> +2.8343000e+11 </wgt>
<wgt id='1012'> +2.8766852e+11 </wgt>
<wgt id='1013'> +2.8766744e+11 </wgt>
<wgt id='1014'> +3.2341770e+11 </wgt>
<wgt id='1015'> +2.8343000e+11 </wgt>
<wgt id='1016'> +2.5420947e+11 </wgt>
<wgt id='1017'> +2.5779137e+11 </wgt>
<wgt id='1018'> +2.5779046e+11 </wgt>
<wgt id='1019'> +2.8766744e+11 </wgt>
<wgt id='1020'> +2.5420947e+11 </wgt>
<wgt id='1021'> +2.5420947e+11 </wgt>
<wgt id='1022'> +2.5779137e+11 </wgt>
<wgt id='1023'> +2.5779046e+11 </wgt>
<wgt id='1024'> +2.8766744e+11 </wgt>
<wgt id='1025'> +2.5420947e+11 </wgt>
<wgt id='1026'> +2.5420947e+11 </wgt>
<wgt id='1027'> +2.5779137e+11 </wgt>
<wgt id='1028'> +2.5779046e+11 </wgt>
<wgt id='1029'> +2.8766744e+11 </wgt>
<wgt id='1030'> +2.5420947e+11 </wgt>
<wgt id='1031'> +3.1832118e+11 </wgt>
<wgt id='1032'> +3.2341901e+11 </wgt>
<wgt id='1033'> +3.2341770e+11 </wgt>
<wgt id='1034'> +3.6653908e+11 </wgt>
<wgt id='1035'> +3.1832118e+11 </wgt>
<wgt id='1036'> +3.1832118e+11 </wgt>
<wgt id='1037'> +3.2341901e+11 </wgt>
<wgt id='1038'> +3.2341770e+11 </wgt>
<wgt id='1039'> +3.6653908e+11 </wgt>
<wgt id='1040'> +3.1832118e+11 </wgt>
<wgt id='1041'> +3.1832118e+11 </wgt>
<wgt id='1042'> +3.2341901e+11 </wgt>
<wgt id='1043'> +3.2341770e+11 </wgt>
<wgt id='1044'> +3.6653908e+11 </wgt>
<wgt id='1045'> +3.1832118e+11 </wgt>
<wgt id='1046'> +2.8343000e+11 </wgt>
<wgt id='1047'> +2.8343000e+11 </wgt>
<wgt id='1048'> +2.8343000e+11 </wgt>
<wgt id='1049'> +2.8271634e+11 </wgt>
<wgt id='1050'> +2.8323912e+11 </wgt>
<wgt id='1051'> +2.8330664e+11 </wgt>
<wgt id='1052'> +2.8435203e+11 </wgt>
<wgt id='1053'> +2.8172216e+11 </wgt>
<wgt id='1054'> +2.8372863e+11 </wgt>
<wgt id='1055'> +2.8223853e+11 </wgt>
<wgt id='1056'> +2.8208134e+11 </wgt>
<wgt id='1057'> +2.8369316e+11 </wgt>
<wgt id='1058'> +2.8287543e+11 </wgt>
<wgt id='1059'> +2.8521514e+11 </wgt>
<wgt id='1060'> +2.8377877e+11 </wgt>
<wgt id='1061'> +2.8398197e+11 </wgt>
<wgt id='1062'> +2.8422823e+11 </wgt>
<wgt id='1063'> +2.8433714e+11 </wgt>
<wgt id='1064'> +2.8414546e+11 </wgt>
<wgt id='1065'> +2.8467926e+11 </wgt>
<wgt id='1066'> +2.8134537e+11 </wgt>
<wgt id='1067'> +2.8125785e+11 </wgt>
<wgt id='1068'> +2.8331982e+11 </wgt>
<wgt id='1069'> +2.8257701e+11 </wgt>
<wgt id='1070'> +2.8385621e+11 </wgt>
<wgt id='1071'> +2.8348800e+11 </wgt>
<wgt id='1072'> +2.8194989e+11 </wgt>
<wgt id='1073'> +2.8354580e+11 </wgt>
<wgt id='1074'> +2.8329912e+11 </wgt>
<wgt id='1075'> +2.8448130e+11 </wgt>
<wgt id='1076'> +2.8173810e+11 </wgt>
<wgt id='1077'> +2.8216010e+11 </wgt>
<wgt id='1078'> +2.8409458e+11 </wgt>
<wgt id='1079'> +2.8215307e+11 </wgt>
<wgt id='1080'> +2.8315700e+11 </wgt>
<wgt id='1081'> +2.8293994e+11 </wgt>
<wgt id='1082'> +2.8219192e+11 </wgt>
<wgt id='1083'> +2.8385173e+11 </wgt>
<wgt id='1084'> +2.8392455e+11 </wgt>
<wgt id='1085'> +2.8274718e+11 </wgt>
<wgt id='1086'> +2.8310580e+11 </wgt>
<wgt id='1087'> +2.8313808e+11 </wgt>
<wgt id='1088'> +2.8293475e+11 </wgt>
<wgt id='1089'> +2.8265284e+11 </wgt>
<wgt id='1090'> +2.8411941e+11 </wgt>
<wgt id='1091'> +2.8351936e+11 </wgt>
<wgt id='1092'> +2.8376017e+11 </wgt>
<wgt id='1093'> +2.8335574e+11 </wgt>
<wgt id='1094'> +2.8273066e+11 </wgt>
<wgt id='1095'> +2.8362310e+11 </wgt>
<wgt id='1096'> +2.8340623e+11 </wgt>
<wgt id='1097'> +2.8299776e+11 </wgt>
<wgt id='1098'> +2.8310173e+11 </wgt>
<wgt id='1099'> +2.8316508e+11 </wgt>
<wgt id='1100'> +2.8404226e+11 </wgt>
<wgt id='1101'> +2.8345994e+11 </wgt>
<wgt id='1102'> +2.8331272e+11 </wgt>
<wgt id='1103'> +2.8296828e+11 </wgt>
<wgt id='1104'> +2.8317697e+11 </wgt>
<wgt id='1105'> +2.8353378e+11 </wgt>
<wgt id='1106'> +2.8376173e+11 </wgt>
<wgt id='1107'> +2.8344814e+11 </wgt>
<wgt id='1108'> +2.8327941e+11 </wgt>
<wgt id='1109'> +2.8322148e+11 </wgt>
<wgt id='1110'> +2.8372879e+11 </wgt>
<wgt id='1111'> +2.8357502e+11 </wgt>
<wgt id='1112'> +2.8338436e+11 </wgt>
<wgt id='1113'> +2.8375651e+11 </wgt>
<wgt id='1114'> +2.8312074e+11 </wgt>
<wgt id='1115'> +2.8314475e+11 </wgt>
<wgt id='1116'> +2.8387981e+11 </wgt>
<wgt id='1117'> +2.8336163e+11 </wgt>
<wgt id='1118'> +2.8359784e+11 </wgt>
<wgt id='1119'> +2.8316345e+11 </wgt>
<wgt id='1120'> +2.8321833e+11 </wgt>
<wgt id='1121'> +2.8351058e+11 </wgt>
<wgt id='1122'> +2.8317976e+11 </wgt>
<wgt id='1123'> +2.8337300e+11 </wgt>
<wgt id='1124'> +2.8339838e+11 </wgt>
<wgt id='1125'> +2.8360482e+11 </wgt>
<wgt id='1126'> +2.8354164e+11 </wgt>
<wgt id='1127'> +2.8330468e+11 </wgt>
<wgt id='1128'> +2.8343373e+11 </wgt>
<wgt id='1129'> +2.8334206e+11 </wgt>
<wgt id='1130'> +2.8346599e+11 </wgt>
<wgt id='1131'> +2.8379809e+11 </wgt>
<wgt id='1132'> +2.8334811e+11 </wgt>
<wgt id='1133'> +2.8353388e+11 </wgt>
<wgt id='1134'> +2.8342183e+11 </wgt>
<wgt id='1135'> +2.8346665e+11 </wgt>
<wgt id='1136'> +2.8336599e+11 </wgt>
<wgt id='1137'> +2.8325638e+11 </wgt>
<wgt id='1138'> +2.8355951e+11 </wgt>
<wgt id='1139'> +2.8348933e+11 </wgt>
<wgt id='1140'> +2.8365915e+11 </wgt>
<wgt id='1141'> +2.8325350e+11 </wgt>
<wgt id='1142'> +2.8349363e+11 </wgt>
<wgt id='1143'> +2.8360156e+11 </wgt>
<wgt id='1144'> +2.8333196e+11 </wgt>
<wgt id='1145'> +2.8356773e+11 </wgt>
<wgt id='1146'> +2.8344931e+11 </wgt>
<wgt id='1147'> +2.8348290e+11 </wgt>
<wgt id='1148'> +2.8343000e+11 </wgt>
<wgt id='1149'> +2.8343000e+11 </wgt>
<wgt id='1150'> +2.9659287e+11 </wgt>
<wgt id='1151'> +2.7824531e+11 </wgt>
<wgt id='1152'> +2.7894259e+11 </wgt>
<wgt id='1153'> +2.8630156e+11 </wgt>
<wgt id='1154'> +2.8361579e+11 </wgt>
<wgt id='1155'> +2.9179593e+11 </wgt>
<wgt id='1156'> +2.7738366e+11 </wgt>
<wgt id='1157'> +2.7466712e+11 </wgt>
<wgt id='1158'> +2.7712192e+11 </wgt>
<wgt id='1159'> +2.9976870e+11 </wgt>
<wgt id='1160'> +2.8438953e+11 </wgt>
<wgt id='1161'> +2.8669156e+11 </wgt>
<wgt id='1162'> +2.8316221e+11 </wgt>
<wgt id='1163'> +2.8624241e+11 </wgt>
<wgt id='1164'> +2.7185138e+11 </wgt>
<wgt id='1165'> +2.7773442e+11 </wgt>
<wgt id='1166'> +2.8341057e+11 </wgt>
<wgt id='1167'> +2.7824587e+11 </wgt>
<wgt id='1168'> +2.7491812e+11 </wgt>
<wgt id='1169'> +2.7572173e+11 </wgt>
<wgt id='1170'> +2.8276629e+11 </wgt>
<wgt id='1171'> +2.7289408e+11 </wgt>
<wgt id='1172'> +2.7545348e+11 </wgt>
<wgt id='1173'> +2.8580885e+11 </wgt>
<wgt id='1174'> +2.7738282e+11 </wgt>
<wgt id='1175'> +2.7757694e+11 </wgt>
<wgt id='1176'> +2.8649048e+11 </wgt>
<wgt id='1177'> +2.7809442e+11 </wgt>
<wgt id='1178'> +2.8346223e+11 </wgt>
<wgt id='1179'> +2.8215872e+11 </wgt>
<wgt id='1180'> +2.9039175e+11 </wgt>
<wgt id='1181'> +2.8556165e+11 </wgt>
<wgt id='1182'> +2.8015220e+11 </wgt>
<wgt id='1183'> +2.9120498e+11 </wgt>
<wgt id='1184'> +2.8304478e+11 </wgt>
<wgt id='1185'> +2.8652736e+11 </wgt>
<wgt id='1186'> +2.7608003e+11 </wgt>
<wgt id='1187'> +2.8435054e+11 </wgt>
<wgt id='1188'> +2.8585405e+11 </wgt>
<wgt id='1189'> +2.8264823e+11 </wgt>
<wgt id='1190'> +2.8166837e+11 </wgt>
<wgt id='1191'> +2.9152327e+11 </wgt>
<wgt id='1192'> +2.8937558e+11 </wgt>
<wgt id='1193'> +2.9194432e+11 </wgt>
<wgt id='1194'> +2.8149593e+11 </wgt>
<wgt id='1195'> +2.8409069e+11 </wgt>
<wgt id='1196'> +2.9168753e+11 </wgt>
<wgt id='1197'> +2.9158704e+11 </wgt>
<wgt id='1198'> +2.8273169e+11 </wgt>
<wgt id='1199'> +2.8727290e+11 </wgt>
<wgt id='1200'> +2.8614252e+11 </wgt>
<wgt id='1201'> +2.8022980e+11 </wgt>
<wgt id='1202'> +2.8693145e+11 </wgt>
<wgt id='1203'> +2.8047107e+11 </wgt>
<wgt id='1204'> +2.8386070e+11 </wgt>
<wgt id='1205'> +2.8377794e+11 </wgt>
<wgt id='1206'> +2.7894147e+11 </wgt>
<wgt id='1207'> +2.9141555e+11 </wgt>
<wgt id='1208'> +2.7093072e+11 </wgt>
<wgt id='1209'> +2.8224054e+11 </wgt>
<wgt id='1210'> +2.8469898e+11 </wgt>
<wgt id='1211'> +2.8504629e+11 </wgt>
<wgt id='1212'> +2.8309978e+11 </wgt>
<wgt id='1213'> +2.8992926e+11 </wgt>
<wgt id='1214'> +2.7694484e+11 </wgt>
<wgt id='1215'> +2.8633692e+11 </wgt>
<wgt id='1216'> +2.8282425e+11 </wgt>
<wgt id='1217'> +2.7723286e+11 </wgt>
<wgt id='1218'> +2.8480380e+11 </wgt>
<wgt id='1219'> +2.9370281e+11 </wgt>
<wgt id='1220'> +2.7895585e+11 </wgt>
<wgt id='1221'> +2.7630283e+11 </wgt>
<wgt id='1222'> +2.7890599e+11 </wgt>
<wgt id='1223'> +2.7304370e+11 </wgt>
<wgt id='1224'> +2.8297578e+11 </wgt>
<wgt id='1225'> +2.8805385e+11 </wgt>
<wgt id='1226'> +2.8743676e+11 </wgt>
<wgt id='1227'> +2.7839675e+11 </wgt>
<wgt id='1228'> +2.8199653e+11 </wgt>
<wgt id='1229'> +3.0155081e+11 </wgt>
<wgt id='1230'> +2.9076095e+11 </wgt>
<wgt id='1231'> +2.7773442e+11 </wgt>
<wgt id='1232'> +2.8752614e+11 </wgt>
<wgt id='1233'> +2.7667301e+11 </wgt>
<wgt id='1234'> +2.7704867e+11 </wgt>
<wgt id='1235'> +3.0018954e+11 </wgt>
<wgt id='1236'> +2.7721858e+11 </wgt>
<wgt id='1237'> +2.8905667e+11 </wgt>
<wgt id='1238'> +2.8404822e+11 </wgt>
<wgt id='1239'> +2.8746784e+11 </wgt>
<wgt id='1240'> +2.8011287e+11 </wgt>
<wgt id='1241'> +2.8455807e+11 </wgt>
<wgt id='1242'> +2.8001153e+11 </wgt>
<wgt id='1243'> +2.8635683e+11 </wgt>
<wgt id='1244'> +2.8532169e+11 </wgt>
<wgt id='1245'> +2.7956986e+11 </wgt>
<wgt id='1246'> +3.0513045e+11 </wgt>
<wgt id='1247'> +2.8183635e+11 </wgt>
<wgt id='1248'> +2.7356013e+11 </wgt>
<wgt id='1249'> +2.7605805e+11 </wgt>
<wgt id='1250'> +2.9280462e+11 </wgt>
<wgt id='1251'> +3.0061821e+11 </wgt>
<wgt id='1252'> +2.8822745e+11 </wgt>
<wgt id='1253'> +2.8874459e+11 </wgt>
<wgt id='1254'> +2.8918794e+11 </wgt>
<wgt id='1255'> +3.0114557e+11 </wgt>
<wgt id='1256'> +3.0102051e+11 </wgt>
<wgt id='1257'> +2.9562493e+11 </wgt>
<wgt id='1258'> +2.9607085e+11 </wgt>
<wgt id='1259'> +2.9951746e+11 </wgt>
<wgt id='1260'> +3.2656342e+11 </wgt>
<wgt id='1261'> +3.1443654e+11 </wgt>
<wgt id='1262'> +2.9235141e+11 </wgt>
<wgt id='1263'> +2.9854800e+11 </wgt>
<wgt id='1264'> +3.0130355e+11 </wgt>
<wgt id='1265'> +2.9652985e+11 </wgt>
<wgt id='1266'> +3.0044914e+11 </wgt>
<wgt id='1267'> +3.3265574e+11 </wgt>
<wgt id='1268'> +2.9191233e+11 </wgt>
<wgt id='1269'> +2.8744819e+11 </wgt>
<wgt id='1270'> +2.9915800e+11 </wgt>
<wgt id='1271'> +2.7273837e+11 </wgt>
<wgt id='1272'> +2.9354440e+11 </wgt>
<wgt id='1273'> +2.9142757e+11 </wgt>
<wgt id='1274'> +2.8704673e+11 </wgt>
<wgt id='1275'> +2.9649881e+11 </wgt>
<wgt id='1276'> +2.9973271e+11 </wgt>
<wgt id='1277'> +2.9482199e+11 </wgt>
<wgt id='1278'> +2.9498223e+11 </wgt>
<wgt id='1279'> +2.8067745e+11 </wgt>
<wgt id='1280'> +2.8883495e+11 </wgt>
<wgt id='1281'> +2.8561357e+11 </wgt>
<wgt id='1282'> +2.9629118e+11 </wgt>
<wgt id='1283'> +3.0344645e+11 </wgt>
<wgt id='1284'> +3.1202169e+11 </wgt>
<wgt id='1285'> +3.0863985e+11 </wgt>
<wgt id='1286'> +3.2969839e+11 </wgt>
<wgt id='1287'> +3.0552200e+11 </wgt>
<wgt id='1288'> +3.2906412e+11 </wgt>
<wgt id='1289'> +3.1396994e+11 </wgt>
<wgt id='1290'> +3.1239596e+11 </wgt>
<wgt id='1291'> +2.7851610e+11 </wgt>
<wgt id='1292'> +3.0079049e+11 </wgt>
<wgt id='1293'> +3.0249788e+11 </wgt>
<wgt id='1294'> +3.1897165e+11 </wgt>
<wgt id='1295'> +3.0627798e+11 </wgt>
<wgt id='1296'> +3.2255966e+11 </wgt>
<wgt id='1297'> +2.9358870e+11 </wgt>
<wgt id='1298'> +2.8835586e+11 </wgt>
<wgt id='1299'> +3.0200807e+11 </wgt>
<wgt id='1300'> +2.8751233e+11 </wgt>
<wgt id='1301'> +2.7988619e+11 </wgt>
<wgt id='1302'> +2.8166323e+11 </wgt>
<wgt id='1303'> +3.0126896e+11 </wgt>
<wgt id='1304'> +3.1657815e+11 </wgt>
<wgt id='1305'> +2.9895650e+11 </wgt>
<wgt id='1306'> +3.0617401e+11 </wgt>
<wgt id='1307'> +2.9604090e+11 </wgt>
<wgt id='1308'> +3.2850694e+11 </wgt>
<wgt id='1309'> +2.9873072e+11 </wgt>
<wgt id='1310'> +3.0315780e+11 </wgt>
<wgt id='1311'> +3.0336202e+11 </wgt>
<wgt id='1312'> +3.0594710e+11 </wgt>
<wgt id='1313'> +3.0064847e+11 </wgt>
<wgt id='1314'> +2.9950470e+11 </wgt>
<wgt id='1315'> +2.8700035e+11 </wgt>
<wgt id='1316'> +2.9985672e+11 </wgt>
<wgt id='1317'> +3.0641147e+11 </wgt>
<wgt id='1318'> +2.9054060e+11 </wgt>
<wgt id='1319'> +3.0117463e+11 </wgt>
<wgt id='1320'> +3.1382766e+11 </wgt>
<wgt id='1321'> +2.9771380e+11 </wgt>
<wgt id='1322'> +3.0259917e+11 </wgt>
<wgt id='1323'> +2.9465462e+11 </wgt>
<wgt id='1324'> +3.0462338e+11 </wgt>
<wgt id='1325'> +3.1216867e+11 </wgt>
<wgt id='1326'> +3.0702516e+11 </wgt>
<wgt id='1327'> +3.0448869e+11 </wgt>
<wgt id='1328'> +2.9918078e+11 </wgt>
<wgt id='1329'> +2.9839525e+11 </wgt>
<wgt id='1330'> +2.8824765e+11 </wgt>
<wgt id='1331'> +3.2151599e+11 </wgt>
<wgt id='1332'> +2.9191039e+11 </wgt>
<wgt id='1333'> +3.0205800e+11 </wgt>
<wgt id='1334'> +3.1568523e+11 </wgt>
<wgt id='1335'> +2.9337169e+11 </wgt>
<wgt id='1336'> +3.0972578e+11 </wgt>
<wgt id='1337'> +3.0917117e+11 </wgt>
<wgt id='1338'> +2.8911384e+11 </wgt>
<wgt id='1339'> +3.1817391e+11 </wgt>
<wgt id='1340'> +3.0468144e+11 </wgt>
<wgt id='1341'> +3.1377194e+11 </wgt>
<wgt id='1342'> +3.0926054e+11 </wgt>
<wgt id='1343'> +3.0982642e+11 </wgt>
<wgt id='1344'> +3.1140041e+11 </wgt>
<wgt id='1345'> +2.7212201e+11 </wgt>
<wgt id='1346'> +3.0261145e+11 </wgt>
<wgt id='1347'> +2.8999547e+11 </wgt>
<wgt id='1348'> +2.8974542e+11 </wgt>
<wgt id='1349'> +2.8824642e+11 </wgt>
<wgt id='1350'> +3.0484262e+11 </wgt>
<wgt id='1351'> +2.9424939e+11 </wgt>
<wgt id='1352'> +3.0267513e+11 </wgt>
<wgt id='1353'> +2.9936503e+11 </wgt>
<wgt id='1354'> +3.0868737e+11 </wgt>
<wgt id='1355'> +2.7645023e+11 </wgt>
<wgt id='1356'> +2.7913839e+11 </wgt>
<wgt id='1357'> +2.7687071e+11 </wgt>
<wgt id='1358'> +2.7440108e+11 </wgt>
<wgt id='1359'> +2.7653656e+11 </wgt>
<wgt id='1360'> +2.7083256e+11 </wgt>
<wgt id='1361'> +2.7577889e+11 </wgt>
<wgt id='1362'> +2.8145334e+11 </wgt>
<wgt id='1363'> +2.7235269e+11 </wgt>
<wgt id='1364'> +2.8160875e+11 </wgt>
<wgt id='1365'> +2.7423982e+11 </wgt>
<wgt id='1366'> +2.7429608e+11 </wgt>
<wgt id='1367'> +2.7689128e+11 </wgt>
<wgt id='1368'> +2.7673530e+11 </wgt>
<wgt id='1369'> +2.7965592e+11 </wgt>
<wgt id='1370'> +2.7426899e+11 </wgt>
<wgt id='1371'> +2.7602499e+11 </wgt>
<wgt id='1372'> +2.7950089e+11 </wgt>
<wgt id='1373'> +2.7973268e+11 </wgt>
<wgt id='1374'> +2.6864242e+11 </wgt>
<wgt id='1375'> +2.7666136e+11 </wgt>
<wgt id='1376'> +2.7627651e+11 </wgt>
<wgt id='1377'> +2.7695802e+11 </wgt>
<wgt id='1378'> +2.7438427e+11 </wgt>
<wgt id='1379'> +2.7492992e+11 </wgt>
<wgt id='1380'> +2.7423741e+11 </wgt>
<wgt id='1381'> +2.8141257e+11 </wgt>
<wgt id='1382'> +2.7570265e+11 </wgt>
<wgt id='1383'> +2.7501352e+11 </wgt>
<wgt id='1384'> +2.7367258e+11 </wgt>
<wgt id='1385'> +2.7332112e+11 </wgt>
<wgt id='1386'> +2.7643982e+11 </wgt>
<wgt id='1387'> +2.7494575e+11 </wgt>
<wgt id='1388'> +2.7205617e+11 </wgt>
<wgt id='1389'> +2.7531527e+11 </wgt>
<wgt id='1390'> +2.7726290e+11 </wgt>
<wgt id='1391'> +2.7445577e+11 </wgt>
<wgt id='1392'> +2.7385289e+11 </wgt>
<wgt id='1393'> +2.7596340e+11 </wgt>
<wgt id='1394'> +2.7468790e+11 </wgt>
<wgt id='1395'> +2.7182343e+11 </wgt>
<wgt id='1396'> +2.7710611e+11 </wgt>
<wgt id='1397'> +2.7723279e+11 </wgt>
<wgt id='1398'> +2.7808570e+11 </wgt>
<wgt id='1399'> +2.7331445e+11 </wgt>
<wgt id='1400'> +2.7247103e+11 </wgt>
<wgt id='1401'> +2.7633815e+11 </wgt>
<wgt id='1402'> +2.7933644e+11 </wgt>
<wgt id='1403'> +2.8192494e+11 </wgt>
<wgt id='1404'> +2.7700580e+11 </wgt>
<wgt id='1405'> +2.8275654e+11 </wgt>
<wgt id='1406'> +2.7760906e+11 </wgt>
<wgt id='1407'> +2.7683117e+11 </wgt>
<wgt id='1408'> +2.8097470e+11 </wgt>
<wgt id='1409'> +2.7318039e+11 </wgt>
<wgt id='1410'> +2.7115684e+11 </wgt>
<wgt id='1411'> +2.7616866e+11 </wgt>
<wgt id='1412'> +2.7473568e+11 </wgt>
<wgt id='1413'> +2.7476502e+11 </wgt>
<wgt id='1414'> +2.7877224e+11 </wgt>
<wgt id='1415'> +2.8010514e+11 </wgt>
<wgt id='1416'> +2.7886300e+11 </wgt>
<wgt id='1417'> +2.7191441e+11 </wgt>
<wgt id='1418'> +2.7696511e+11 </wgt>
<wgt id='1419'> +2.8020967e+11 </wgt>
<wgt id='1420'> +2.7467838e+11 </wgt>
<wgt id='1421'> +2.8259913e+11 </wgt>
<wgt id='1422'> +2.6950404e+11 </wgt>
<wgt id='1423'> +2.8133721e+11 </wgt>
<wgt id='1424'> +2.7760584e+11 </wgt>
<wgt id='1425'> +2.7701008e+11 </wgt>
<wgt id='1426'> +2.7896579e+11 </wgt>
<wgt id='1427'> +2.7600316e+11 </wgt>
<wgt id='1428'> +2.7586227e+11 </wgt>
<wgt id='1429'> +2.7494353e+11 </wgt>
<wgt id='1430'> +2.7236263e+11 </wgt>
<wgt id='1431'> +2.7145765e+11 </wgt>
<wgt id='1432'> +2.7639834e+11 </wgt>
<wgt id='1433'> +2.7515114e+11 </wgt>
<wgt id='1434'> +2.8383772e+11 </wgt>
<wgt id='1435'> +2.7542052e+11 </wgt>
<wgt id='1436'> +2.8022455e+11 </wgt>
<wgt id='1437'> +2.7726260e+11 </wgt>
<wgt id='1438'> +2.7538383e+11 </wgt>
<wgt id='1439'> +2.7948086e+11 </wgt>
<wgt id='1440'> +2.7956198e+11 </wgt>
<wgt id='1441'> +2.7455474e+11 </wgt>
<wgt id='1442'> +2.8207239e+11 </wgt>
<wgt id='1443'> +2.7414000e+11 </wgt>
<wgt id='1444'> +2.7758582e+11 </wgt>
<wgt id='1445'> +2.7796749e+11 </wgt>
<wgt id='1446'> +2.8101804e+11 </wgt>
<wgt id='1447'> +2.7369800e+11 </wgt>
<wgt id='1448'> +2.7888047e+11 </wgt>
<wgt id='1449'> +2.7890997e+11 </wgt>
<wgt id='1450'> +2.7545549e+11 </wgt>
<wgt id='1451'> +2.7780237e+11 </wgt>
<wgt id='1452'> +2.7885389e+11 </wgt>
<wgt id='1453'> +2.7890377e+11 </wgt>
<wgt id='1454'> +2.6895771e+11 </wgt>
<wgt id='1455'> +2.7538290e+11 </wgt>
<wgt id='1456'> +2.7549026e+11 </wgt>
<wgt id='1457'> +2.7541801e+11 </wgt>
<wgt id='1458'> +2.8011649e+11 </wgt>
<wgt id='1459'> +3.0798894e+11 </wgt>
<wgt id='1460'> +3.0314662e+11 </wgt>
<wgt id='1461'> +3.5536177e+11 </wgt>
<wgt id='1462'> +2.9909737e+11 </wgt>
<wgt id='1463'> +2.9933347e+11 </wgt>
<wgt id='1464'> +2.9879457e+11 </wgt>
<wgt id='1465'> +2.9916120e+11 </wgt>
<wgt id='1466'> +2.9903906e+11 </wgt>
<wgt id='1467'> +2.9923835e+11 </wgt>
<wgt id='1468'> +2.9886603e+11 </wgt>
<wgt id='1469'> +2.9865711e+11 </wgt>
<wgt id='1470'> +2.9945493e+11 </wgt>
<wgt id='1471'> +2.9956082e+11 </wgt>
<wgt id='1472'> +2.9862002e+11 </wgt>
<wgt id='1473'> +3.0026421e+11 </wgt>
<wgt id='1474'> +2.9797662e+11 </wgt>
<wgt id='1475'> +3.0020685e+11 </wgt>
<wgt id='1476'> +2.9831080e+11 </wgt>
<wgt id='1477'> +2.9853768e+11 </wgt>
<wgt id='1478'> +3.0040485e+11 </wgt>
<wgt id='1479'> +2.9862685e+11 </wgt>
<wgt id='1480'> +2.9942777e+11 </wgt>
<wgt id='1481'> +2.9863384e+11 </wgt>
<wgt id='1482'> +2.9972315e+11 </wgt>
<wgt id='1483'> +2.9918227e+11 </wgt>
<wgt id='1484'> +2.9897782e+11 </wgt>
<wgt id='1485'> +2.9930435e+11 </wgt>
<wgt id='1486'> +2.9859894e+11 </wgt>
<wgt id='1487'> +2.9936389e+11 </wgt>
<wgt id='1488'> +2.9876374e+11 </wgt>
<wgt id='1489'> +2.9873777e+11 </wgt>
<wgt id='1490'> +3.0007239e+11 </wgt>
<wgt id='1491'> +3.0403265e+11 </wgt>
<wgt id='1492'> +2.9634489e+11 </wgt>
<wgt id='1493'> +2.9554588e+11 </wgt>
<wgt id='1494'> +3.1023246e+11 </wgt>
<wgt id='1495'> +2.9839553e+11 </wgt>
<wgt id='1496'> +2.9985051e+11 </wgt>
<wgt id='1497'> +2.9929691e+11 </wgt>
<wgt id='1498'> +2.9882468e+11 </wgt>
<wgt id='1499'> +3.0103238e+11 </wgt>
<wgt id='1500'> +2.9803951e+11 </wgt>
<wgt id='1501'> +2.9952919e+11 </wgt>
<wgt id='1502'> +2.9795411e+11 </wgt>
<wgt id='1503'> +2.9564149e+11 </wgt>
<wgt id='1504'> +3.0283617e+11 </wgt>
<wgt id='1505'> +3.0000548e+11 </wgt>
<wgt id='1506'> +2.9821555e+11 </wgt>
<wgt id='1507'> +3.0105671e+11 </wgt>
<wgt id='1508'> +2.9688132e+11 </wgt>
<wgt id='1509'> +2.9973837e+11 </wgt>
<wgt id='1510'> +2.9634196e+11 </wgt>
<wgt id='1511'> +3.0025648e+11 </wgt>
<wgt id='1512'> +2.9874873e+11 </wgt>
<wgt id='1513'> +2.9899662e+11 </wgt>
<wgt id='1514'> +2.9920729e+11 </wgt>
<wgt id='1515'> +3.0191668e+11 </wgt>
<wgt id='1516'> +2.9928142e+11 </wgt>
<wgt id='1517'> +2.9867998e+11 </wgt>
<wgt id='1518'> +2.9952499e+11 </wgt>
<wgt id='1519'> +2.9735083e+11 </wgt>
<wgt id='1520'> +3.0033823e+11 </wgt>
<wgt id='1521'> +2.9818219e+11 </wgt>
<wgt id='1522'> +2.9963204e+11 </wgt>
<wgt id='1523'> +3.0037705e+11 </wgt>
<wgt id='1524'> +3.0056353e+11 </wgt>
<wgt id='1525'> +3.0015665e+11 </wgt>
<wgt id='1526'> +3.0010859e+11 </wgt>
<wgt id='1527'> +2.9909737e+11 </wgt>
<wgt id='1528'> +2.9863200e+11 </wgt>
<wgt id='1529'> +2.9911110e+11 </wgt>
<wgt id='1530'> +2.9529899e+11 </wgt>
<wgt id='1531'> +2.9798280e+11 </wgt>
<wgt id='1532'> +2.9597545e+11 </wgt>
<wgt id='1533'> +2.9313578e+11 </wgt>
<wgt id='1534'> +2.9642392e+11 </wgt>
<wgt id='1535'> +3.0056124e+11 </wgt>
<wgt id='1536'> +2.9532161e+11 </wgt>
<wgt id='1537'> +2.9825308e+11 </wgt>
<wgt id='1538'> +2.9468975e+11 </wgt>
<wgt id='1539'> +3.0367006e+11 </wgt>
<wgt id='1540'> +2.9776720e+11 </wgt>
<wgt id='1541'> +2.9885107e+11 </wgt>
<wgt id='1542'> +2.9800069e+11 </wgt>
<wgt id='1543'> +2.9933789e+11 </wgt>
<wgt id='1544'> +2.9613256e+11 </wgt>
<wgt id='1545'> +2.9597367e+11 </wgt>
<wgt id='1546'> +2.9405465e+11 </wgt>
<wgt id='1547'> +3.0030290e+11 </wgt>
<wgt id='1548'> +2.9624710e+11 </wgt>
<wgt id='1549'> +2.9449327e+11 </wgt>
<wgt id='1550'> +2.9914152e+11 </wgt>
<wgt id='1551'> +2.9857203e+11 </wgt>
<wgt id='1552'> +2.9761456e+11 </wgt>
<wgt id='1553'> +3.0062217e+11 </wgt>
<wgt id='1554'> +2.9792551e+11 </wgt>
<wgt id='1555'> +2.9872089e+11 </wgt>
<wgt id='1556'> +3.0030610e+11 </wgt>
<wgt id='1557'> +2.9705602e+11 </wgt>
<wgt id='1558'> +2.9814504e+11 </wgt>
<wgt id='1559'> +2.9568255e+11 </wgt>
<wgt id='1560'> +2.9671390e+11 </wgt>
<wgt id='1561'> +2.9486760e+11 </wgt>
<wgt id='1562'> +2.9658091e+11 </wgt>
<wgt id='1563'> +2.9808397e+11 </wgt>
<wgt id='1564'> +2.9756179e+11 </wgt>
<wgt id='1565'> +3.0017923e+11 </wgt>
<wgt id='1566'> +2.9796035e+11 </wgt>
<wgt id='1567'> +3.0104768e+11 </wgt>
<wgt id='1568'> +2.9789258e+11 </wgt>
<wgt id='1569'> +2.9757034e+11 </wgt>
<wgt id='1570'> +3.0478240e+11 </wgt>
<wgt id='1571'> +2.9788983e+11 </wgt>
<wgt id='1572'> +3.0002984e+11 </wgt>
<wgt id='1573'> +3.0142806e+11 </wgt>
<wgt id='1574'> +2.6003133e+11 </wgt>
<wgt id='1575'> +2.6010123e+11 </wgt>
<wgt id='1576'> +2.5996347e+11 </wgt>
<wgt id='1577'> +2.6004944e+11 </wgt>
<wgt id='1578'> +2.6063085e+11 </wgt>
<wgt id='1579'> +2.6086946e+11 </wgt>
<wgt id='1580'> +2.6063906e+11 </wgt>
<wgt id='1581'> +2.5946313e+11 </wgt>
<wgt id='1582'> +2.5917228e+11 </wgt>
<wgt id='1583'> +2.5958586e+11 </wgt>
<wgt id='1584'> +2.6060242e+11 </wgt>
<wgt id='1585'> +2.6024026e+11 </wgt>
<wgt id='1586'> +2.5909516e+11 </wgt>
<wgt id='1587'> +2.5930822e+11 </wgt>
<wgt id='1588'> +2.5883021e+11 </wgt>
<wgt id='1589'> +2.5975527e+11 </wgt>
<wgt id='1590'> +2.5986038e+11 </wgt>
<wgt id='1591'> +2.6010442e+11 </wgt>
<wgt id='1592'> +2.5902126e+11 </wgt>
<wgt id='1593'> +2.5907691e+11 </wgt>
<wgt id='1594'> +2.6094080e+11 </wgt>
<wgt id='1595'> +2.5767838e+11 </wgt>
<wgt id='1596'> +2.6387896e+11 </wgt>
<wgt id='1597'> +2.6180243e+11 </wgt>
<wgt id='1598'> +2.6198851e+11 </wgt>
<wgt id='1599'> +2.5718076e+11 </wgt>
<wgt id='1600'> +2.6465021e+11 </wgt>
<wgt id='1601'> +2.6217944e+11 </wgt>
<wgt id='1602'> +2.6007589e+11 </wgt>
<wgt id='1603'> +2.7185389e+11 </wgt>
<wgt id='1604'> +2.6015338e+11 </wgt>
</rwgt>
</event>
</LesHouchesEvents>
